------------------------------------------------------------
          Invoking FHI-aims ...

          When using FHI-aims, please cite the following reference:

            Volker Blum, Ralf Gehrke, Felix Hanke, Paula Havu,
            Ville Havu, Xinguo Ren, Karsten Reuter, and Matthias Scheffler,
            'Ab Initio Molecular Simulations with Numeric Atom-Centered Orbitals',
            Computer Physics Communications 180, 2175-2196 (2009)

          In addition, many other developments in FHI-aims are likely important for
          your particular application. If so, please cite them. A partial list of references
          is written at the end of this file. Thank you for giving credit to the authors
          of these developments.

          For general information about FHI-aims please find us at

            https://fhi-aims.org

          Online tutorials can be found at

            https://fhi-aims-club.gitlab.io/tutorials/tutorials-overview/

          For any questions about FHI-aims, please visit our slack channel at

            https://fhi-aims.slack.com

          and our main development and support site at

            https://aims-git.rz-berlin.mpg.de .

          The latter site, in particular, has a wiki to collect information, as well
          as an issue tracker to log discussions, suggest improvements, and report issues
          or bugs. https://aims-git.rz-berlin.mpg.de is also the main development site
          of the project and all new and updated code versions can be obtained there.
          Please send an email to aims-coordinators@fhi-berlin.mpg.de and we will add
          you to these sites. They are for you and everyone is welcome there.

------------------------------------------------------------



  Date     :  20240501, Time     :  140704.987
  Time zero on CPU 1             :   0.211430000000000E-01  s.
  Internal wall clock time zero  :           483804424.987  s.

  FHI-aims created a unique identifier for this run for later identification
  aims_uuid : D866B9A7-90E5-4A03-A74B-82F8CA7E4A9D

  Build configuration of the current instance of FHI-aims
  -------------------------------------------------------
  FHI-aims version      : 240206
  Commit number         : 2d3e5a79f
  CMake host system     : Linux-6.7.4-zen1-1-zen
  CMake version         : 3.28.3
  Fortran compiler      : /usr/bin/mpifort (GNU) version 13.2.1
  Fortran compiler flags: -fallow-argument-mismatch -march=native -ffree-line-length-none -fallow-argument-mismatch -march=native -ffree-line-length-none
  C compiler            : /usr/bin/gcc (GNU) version 13.2.1
  C compiler flags      :  -march=native
  C++ compiler          : /usr/bin/g++ (GNU) version 13.2.1
  C++ compiler flags    :  -march=native
  HIP compiler          :
  HIP compiler flags    :
  HIP GPU arch          :
  Using MPI
  Using ScaLAPACK
  Using LibXC
  Using i-PI
  Using RLSY
  Linking against: /usr/lib/libscalapack.so
                   /usr/lib/libopenblas.so

  Using        4 parallel tasks.
  Task        0 on host arch reporting.
  Task        1 on host arch reporting.
  Task        2 on host arch reporting.
  Task        3 on host arch reporting.

  Memory overcommitment is allowed on your operating system.

  Obtaining array dimensions for all initial allocations:
  
  -----------------------------------------------------------------------
  Parsing control.in (first pass over file, find array dimensions only).
  The contents of control.in will be repeated verbatim below
  unless switched off by setting 'verbatim_writeout .false.' .
  in the first line of control.in .
  -----------------------------------------------------------------------
  
  xc                           hse06 0.11
  hse_unit                     b
  k_grid                       8 8 8
  ################################################################################
  #
  #  FHI-aims code project
  #  VB, Fritz-Haber Institut, 2009
  #
  #  Suggested "light" defaults for Si atom (to be pasted into control.in file)
  #  Be sure to double-check any results obtained with these settings for post-processing,
  #  e.g., with the "tight" defaults and larger basis sets.
  #
  #  2020/09/08 Added f function to "light" after reinspection of Delta test outcomes.
  #             This was done for all of Al-Cl and is a tricky decision since it makes
  #             "light" calculations measurably more expensive for these elements.
  #             Nevertheless, outcomes for P, S, Cl (and to some extent, Si) appear
  #             to justify this choice.
  #
  ################################################################################
    species        Si
  #     global species definitions
      nucleus             14
      mass                28.0855
  #
      l_hartree           4
  #
      cut_pot             3.5          1.5  1.0
      basis_dep_cutoff    1e-4
  #
      radial_base         42 5.0
      radial_multiplier   1
      angular_grids       specified
        division   0.5866   50
        division   0.9616  110
        division   1.2249  194
        division   1.3795  302
  #      division   1.4810  434
  #      division   1.5529  590
  #      division   1.6284  770
  #      division   1.7077  974
  #      division   2.4068 1202
  #      outer_grid   974
        outer_grid 302
  ################################################################################
  #
  #  Definition of "minimal" basis
  #
  ################################################################################
  #     valence basis states
      valence      3  s   2.
      valence      3  p   2.
  #     ion occupancy
      ion_occ      3  s   1.
      ion_occ      3  p   1.
  ################################################################################
  #
  #  Suggested additional basis functions. For production calculations,
  #  uncomment them one after another (the most important basis functions are
  #  listed first).
  #
  #  Constructed for dimers: 1.75 A, 2.0 A, 2.25 A, 2.75 A, 3.75 A
  #
  ################################################################################
  #  "First tier" - improvements: -571.96 meV to -37.03 meV
       hydro 3 d 4.2
       hydro 2 p 1.4
       hydro 4 f 6.2
       ionic 3 s auto
  #  "Second tier" - improvements: -16.76 meV to -3.03 meV
  #     hydro 3 d 9
  #     hydro 5 g 9.4
  #     hydro 4 p 4
  #     hydro 1 s 0.65
  #  "Third tier" - improvements: -3.89 meV to -0.60 meV
  #     ionic 3 d auto
  #     hydro 3 s 2.6
  #     hydro 4 f 8.4
  #     hydro 3 d 3.4
  #     hydro 3 p 7.8
  #  "Fourth tier" - improvements: -0.33 meV to -0.11 meV
  #     hydro 2 p 1.6
  #     hydro 5 g 10.8
  #     hydro 5 f 11.2
  #     hydro 3 d 1
  #     hydro 4 s 4.5
  #  Further basis functions that fell out of the optimization - noise
  #  level... < -0.08 meV
  #     hydro 4 d 6.6
  #     hydro 5 g 16.4
  #     hydro 4 d 9
  
  -----------------------------------------------------------------------
  Completed first pass over input file control.in .
  -----------------------------------------------------------------------
  
  
  -----------------------------------------------------------------------
  Parsing geometry.in (first pass over file, find array dimensions only).
  The contents of geometry.in will be repeated verbatim below
  unless switched off by setting 'verbatim_writeout .false.' .
  in the first line of geometry.in .
  -----------------------------------------------------------------------
  
  lattice_vector     -0.00000003      2.73831638      2.73831638
  lattice_vector      2.73831641      0.00000001      2.73831640
  lattice_vector      2.73831641      2.73831640      0.00000001
  atom_frac       0.00000000     -0.00000000     -0.00000000 Si
  atom_frac       0.25000000      0.25000000      0.25000000 Si
  
  -----------------------------------------------------------------------
  Completed first pass over input file geometry.in .
  -----------------------------------------------------------------------
  

  Basic array size parameters:
  | Number of species                 :        1
  | Number of atoms                   :        2
  | Number of lattice vectors         :        3
  | Max. basis fn. angular momentum   :        3
  | Max. atomic/ionic basis occupied n:        3
  | Max. number of basis fn. types    :        3
  | Max. radial fns per species/type  :        5
  | Max. logarithmic grid size        :     1346
  | Max. radial integration grid size :       42
  | Max. angular integration grid size:      302
  | Max. angular grid division number :        8
  | Radial grid for Hartree potential :     1346
  | Number of spin channels           :        1

------------------------------------------------------------
          Reading file control.in.
------------------------------------------------------------

  XC: Using HSE-functional with OMEGA =  0.110000E+00 <units>.
  XC: For the actual units (bohr^-1 or Angstrom^-1), see below.
  hse_unit: Unit for the HSE06 hybrid functional screening parameter set to bohr^(-1).
  Found k-point grid:         8         8         8

  Reading configuration options for species Si                  .
  | Found nuclear charge :  14.0000
  | Found atomic mass :    28.085500000000000      amu
  | Found l_max for Hartree potential  :   4
  | Found cutoff potl. onset [A], width [A], scale factor :    3.50000    1.50000    1.00000
  | Threshold for basis-dependent cutoff potential is   0.100000E-03
  | Found data for basic radial integration grid :    42 points, outermost radius =    5.000 A
  | Found multiplier for basic radial grid :   1
  | Found angular grid specification: user-specified.
  | Specified grid contains     5 separate shells.
  | Check grid settings after all constraints further below.
  | Found free-atom valence shell :  3 s   2.000
  | Found free-atom valence shell :  3 p   2.000
  | Found free-ion valence shell :  3 s   1.000
  | Found free-ion valence shell :  3 p   1.000
  | Found hydrogenic basis function :  3 d   4.200
  | Found hydrogenic basis function :  2 p   1.400
  | Found hydrogenic basis function :  4 f   6.200
  | Found ionic basis function :  3 s , default cutoff radius.
  Species Si                  : Missing cutoff potential type.
  Defaulting to exp(1/x)/(1-x)^2 type cutoff potential.
  Species Si: No 'logarithmic' tag. Using default grid for free atom:
  | Default logarithmic grid data [bohr] : 0.1000E-03 0.1000E+03 0.1012E+01
  | Will include ionic basis functions of  2.0-fold positive Si                   ion.
  Species Si: On-site basis accuracy parameter (for Gram-Schmidt orthonormalisation) not specified.
  Using default value basis_acc =  0.1000000E-03.
  Species Si                  : Using default innermost maximum threshold i_radial=  2 for radial functions.
  Species Si                  : Default cutoff onset for free atom density etc. : 0.35000000E+01 AA.
  Species Si                  : Basic radial grid will be enhanced according to radial_multiplier =   1, to contain    42 grid points.

  Finished reading input file 'control.in'.

------------------------------------------------------------


------------------------------------------------------------
          Reading geometry description geometry.in.
------------------------------------------------------------
  | The smallest distance between any two atoms is         2.37145156 AA.
  | The first atom of this pair is atom number                      1 .
  | The second atom of this pair is atom number                     2 .
  | Wigner-Seitz cell of the first atom image           1     0     0 .
  | (The Wigner-Seitz cell of the second atom is 0 0 0  by definition.)

  Symmetry information by spglib:
  | Precision set to  0.1E-04
  | Number of Operations  : 48
  | Space group           : 227
  | International         : Fd-3m
  | Schoenflies           : Oh^7
  Input structure read successfully.
  The structure contains        2 atoms,  and a total of         28.000 electrons.

  Input geometry:
  | Unit cell:
  |       -0.00000003        2.73831638        2.73831638
  |        2.73831641        0.00000001        2.73831640
  |        2.73831641        2.73831640        0.00000001
  | Atomic structure:
  |       Atom                x [A]            y [A]            z [A]
  |    1: Species Si            0.00000000        0.00000000        0.00000000
  |    2: Species Si            1.36915820        1.36915820        1.36915820

  Lattice parameters for 3D lattice (in Angstroms) :     3.872564    3.872564    3.872564
  Angle(s) between unit vectors (in degrees)       :    60.000000   60.000000   60.000000


  Quantities derived from the lattice vectors (in Angstrom^-1):
  | Reciprocal lattice vector 1: -1.147272  1.147272  1.147272
  | Reciprocal lattice vector 2:  1.147272 -1.147272  1.147272
  | Reciprocal lattice vector 3:  1.147272  1.147272 -1.147272
  | Unit cell volume                               :   0.410659E+02  Angstrom^3

  Fractional coordinates:
                         L1                L2                L3
       atom_frac         0.00000000        0.00000000        0.00000000  Si
       atom_frac         0.25000000        0.25000000        0.25000000  Si

  Slab Identifier: This seems to be a bulk system.

  Finished reading input file 'geometry.in'.



  Consistency checks for stacksize environment parameter are next.

  | Maximum stacksize for task 0: unlimited
  | Maximum stacksize for task 1: unlimited
  | Maximum stacksize for task 2: unlimited
  | Maximum stacksize for task 3: unlimited
  | Current stacksize for task 0: unlimited
  | Current stacksize for task 1: unlimited
  | Current stacksize for task 2: unlimited
  | Current stacksize for task 3: unlimited

  Consistency checks for the contents of control.in are next.

  HSE06 screening parameters: omega_HF  =      0.11000000 bohr^-1, and
                              omega_PBE =      0.11000000 bohr^-1.
  MPI_IN_PLACE appears to work with this MPI implementation.
  | Keeping use_mpi_in_place .true. (see manual).
  Explicit treatment of the Coulomb operator is needed, but the RI method is not specified.
  Coulomb operator: Defaulting to 'LVL fast' resolution of identity - RI_type = LVL_fast
  Species Si: Using default value for prodbas_acc =   1.000000E-04.
  Species Si: Using default value max_l_prodbas =    20.
  Target number of points in a grid batch is not set. Defaulting to  100
  Method for grid partitioning is not set. Defaulting to parallel hash+maxmin partitioning.
  Batch size limit is not set. Defaulting to    200
  By default, will store active basis functions for each batch.
  If in need of memory, prune_basis_once .false. can be used to disable this option.
  communication_type for Hartree potential was not specified.
  Defaulting to calc_hartree .
  Defaulting to Pulay charge density mixer.
  Pulay mixer: Number of relevant iterations not set.
  Defaulting to    8 iterations.
  Pulay mixer: Number of initial linear mixing iterations not set.
  Defaulting to    0 iterations.
  Work space size for distributed Hartree potential not set.
  Defaulting to   0.200000E+03 MB.
  Mixing parameter for charge density mixing has not been set.
  Using default: charge_mix_param =     0.0500.
  The mixing parameter will be adjusted in iteration number     2 of the first full s.c.f. cycle only.
  Algorithm-dependent basis array size parameters:
  | n_max_pulay                         :        8
  Maximum number of self-consistency iterations not provided.
  Presetting  1000 iterations.
  Presetting      1001 iterations before the initial mixing cycle
  is restarted anyway using the sc_init_iter criterion / keyword.
  Presetting a factor      1.000 between actual scf density residual
  and density convergence criterion sc_accuracy_rho below which sc_init_iter
  takes no effect.
 * No s.c.f. convergence criteria (sc_accuracy_*) were provided in control.in.
 * The run will proceed with a reasonable default guess, but please check whether.
 * the s.c.f. cycles seem to take too much or too little time.
  Calculation of forces was not defined in control.in. No forces will be calculated.
  Geometry relaxation not requested: no relaxation will be performed.
 * Notice: The s.c.f. convergence criterion sc_accuracy_rho was not provided.
 * We used to stop in this case, and ask the user to provide reasonable
 * scf convergence criteria. However, this led some users to employ criteria
 * that led to extremely long run times, e.g., for simple relaxation.
 * We now preset a default value for sc_accuracy_rho if it is not set.
 * You may still wish to check if this setting is too tight or too loose for your needs.
 * Based on n_atoms and forces and force-correction status, FHI-aims chose sc_accuracy_rho =  0.800000E-05 .
  No accuracy limit for integral partition fn. given. Defaulting to  0.1000E-14.
  No threshold value for u(r) in integrations given. Defaulting to  0.1000E-05.
  No occupation type (smearing scheme) given. Defaulting to Gaussian broadening, width =  0.1000E-01 eV.
  The width will be adjusted in iteration number     2 of the first full s.c.f. cycle only.
  S.C.F. convergence parameters will be adjusted in iteration number     2 of the first full s.c.f. cycle only.
  No accuracy for occupation numbers given. Defaulting to  0.1000E-12.
  No threshold value for occupation numbers given. Defaulting to  0.0000E+00.
  No accuracy for fermi level given. Defaulting to  0.1000E-19.
  Maximum # of iterations to find E_F not set. Defaulting to  200.
  Preferred method for the eigenvalue solver ('KS_method') not specified in 'control.in'.
  Defaulting to serial version, LAPACK (via ELSI), since more k-points than CPUs available.
  Will not use alltoall communication since running on < 1024 CPUs.
  Threshold for basis singularities not set.
  Default threshold for basis singularities:  0.1000E-04
  partition_type (choice of integration weights) for integrals was not specified.
  | Using a version of the partition function of Stratmann and coworkers ('stratmann_sparse').
  | At each grid point, the set of atoms used to build the partition table is smoothly restricted to
  | only those atoms whose free-atom density would be non-zero at that grid point.
  Partitioning for Hartree potential was not defined. Using partition_type for integrals.
  | Adjusted default value of keyword multip_moments_threshold to:       0.10000000E-11
  | This value may affect high angular momentum components of the Hartree potential in periodic systems.
  Spin handling was not defined in control.in. Defaulting to unpolarized case.
  Threshold for auxiliary basis singularities not set.
  Default threshold for auxiliary basis singularities:  0.1000E-04
  No q(lm)/r^(l+1) cutoff set for long-range Hartree potential.
  | Using default value of  0.100000E-09 .
  | Verify using the multipole_threshold keyword.
  Defaulting to new monopole extrapolation.
  Density update method: automatic selection selected.
  Using density matrix based charge density update.
  Using density matrix based charge density update.
  Using packed matrix style: index .
 * NOTE: You are attempting to run a periodic structure with an exchange treatment
 * which requires a two-electron Coulomb operator (Hartree-Fock or a hybrid functional).
 * The present implementation is reliable to our knowledge, but some things
 * (like band structure output, or perhaps the auxilary basis set for small
 * orbital basis sets - see the "for_aux" keyword) require extra care.
 * Please let us know if you encounter any trouble.
  Coulomb operator: Defaulting to screening threshold for four-center integrals:   0.100000E-06
  Coulomb operator: Defaulting to screening threshold for Coulomb matrix:   0.100000E-09
  Fock matrix calculation: Setting the screening threshold for overlap matrix to coul_mat_threshold:   0.100000E-09
  Coulomb operator: Defaulting to 'LVL_fast' resolution of identity - RI_type = LVL_fast 
  No other resolution of identity version is supported for periodic boundary conditions at present.
  Coulomb operator: Defaulting to logarithmic spherical Bessel transform integrals (use_logsbt .true.).
  HSE with LVL_fast: Also defaulting to logarithmic spherical Bessel transform integrals.
  Defaulting to use time-reversal symmetry for k-point grid.
  Charge integration errors on the 3D integration grid will be compensated
  by explicit normalization and distribution of residual charges.
  Use the "compensate_multipole_errors" flag to change this behaviour.
  LVL not implemented with density matrix yet
  -> switching to transformed overlap
  LVL probably works better with logsbt
  Default to 1D ("use_logsbt") integrations for auxiliary 2-center integrals.
  Default onset of logarithmic r-grid for SBT is -38.000000000000
  Default onset of logarithmic k-grid for SBT is -25.000000000000
  Default range of logarithmic r- and k-grid for SBT is  45.000000000000
  Default number of logarithmic r- and k-grid for SBT is   4096
  * Use logSBT for radial HSE integration, too
  Set 'collect_eigenvectors' to be '.true.' for all serial calculations. This is mandatory.
  Set 'collect_eigenvectors' to be '.true.' for KS_method lapack_fast and serial.

  Consistency checks for the contents of geometry.in are next.


  Range separation radius for Ewald summation (hartree_convergence_parameter):      3.92496587 bohr.
 * Warning! You did not set the 'relativistic' flag in input file 'control.in'.
 * FHI-aims will default to 'relativistic atomic_zora scalar'.
 * You must ensure that this is really what you want!!
 * For example, DO NOT compute total-energy differences between results from
 * different settings of the 'relativistic' flag.
  Number of empty states per atom not set in control.in - providing a guess from actual geometry.
  | Total number of empty states used during s.c.f. cycle:        6
  If you use a very high smearing, use empty_states (per atom!) in control.in to increase this value.

  Structure-dependent array size parameters: 
  | Maximum number of distinct radial functions  :        9
  | Maximum number of basis functions            :       50
  | Number of Kohn-Sham states (occupied + empty):       20
------------------------------------------------------------
  Setting Coulomb cut-width to  1.091868692359 * rcut.
  Setting Coulomb cutting radius rcut to 15.490256650658 A.
  After read_input_data [GB]:     53.01

  Performing system and environment tests:
  *** Environment variable OMP_NUM_THREADS is not set
  *** For performance reasons you might want to set it to 1
  | Checking for ScaLAPACK...
  | Testing pdtran()...
  | All pdtran() tests passed.
  After prepare_system [GB]:     53.00

------------------------------------------------------------
          Preparing all fixed parts of the calculation.
------------------------------------------------------------
  Determining machine precision:
     2.2250738585072014E-308
  Setting up grids for atomic and cluster calculations.

  Creating wave function, potential, and density for free atoms.
  Runtime choices for atomic solver:
  | atomic solver xc        : PBE
  | compute density gradient: 1
  | compute kinetic density : F

  Species: Si

  List of occupied orbitals and eigenvalues:
    n    l              occ      energy [Ha]    energy [eV]
    1    0           2.0000       -65.767597     -1789.6274
    2    0           2.0000        -5.115610      -139.2028
    3    0           2.0000        -0.388877       -10.5819
    2    1           6.0000        -3.500197       -95.2452
    3    1           2.0000        -0.140803        -3.8315


  Adding cutoff potential to free-atom effective potential.
  Creating fixed part of basis set: Ionic, confined, hydrogenic.

  Si                   ion:

  List of free ionic orbitals and eigenvalues:
    n    l      energy [Ha]    energy [eV]
    1    0       -66.641157     -1813.3982
    2    0        -5.964274      -162.2962
    3    0        -1.073878       -29.2217
    2    1        -4.350005      -118.3697
    3    1        -0.776571       -21.1316


  List of ionic basis orbitals and eigenvalues:
    n    l      energy [Ha]    energy [eV]    outer radius [A]
    3    0        -1.073857       -29.2211       4.214062


  Si                   hydrogenic:

  List of hydrogenic basis orbitals: 
    n    l      effective z      eigenvalue [eV]  inner max. [A]     outer max. [A]     outer radius [A]   
    3    2         4.200000       -26.6624           1.139231           1.139231           4.534782
    2    1         1.400000        -6.4613           1.472672           1.472672           4.590560
    4    3         6.200000       -32.6778           1.368518           1.368518           4.534782

  Creating atomic-like basis functions for current effective potential.

  Species Si                  :

  List of atomic basis orbitals and eigenvalues:
    n    l      energy [Ha]    energy [eV]    outer radius [A]
    1    0       -65.767597     -1789.6274       0.789468
    2    0        -5.115610      -139.2028       2.815114
    3    0        -0.388877       -10.5819       4.534782
    2    1        -3.500197       -95.2452       3.259919
    3    1        -0.140803        -3.8315       4.590560

  Assembling full basis from fixed parts.
  | Species Si :   atomic orbital   1 s accepted.
  | Species Si :   atomic orbital   2 s accepted.
  | Species Si :    ionic orbital   3 s accepted.
  | Species Si :   atomic orbital   3 s accepted.
  | Species Si :   atomic orbital   2 p accepted.
  | Species Si :   atomic orbital   3 p accepted.
  | Species Si :    hydro orbital   2 p accepted.
  | Species Si :    hydro orbital   3 d accepted.
  | Species Si :    hydro orbital   4 f accepted.

  Basis size parameters after reduction:
  | Total number of radial functions:        9
  | Total number of basis functions :       50

  Per-task memory consumption for arrays in subroutine allocate_ext:
  |           3.102808MB.
  Testing on-site integration grid accuracy.
  |  Species  Function  <phi|h_atom|phi> (log., in eV)  <phi|h_atom|phi> (rad., in eV)
           1        1              -1789.6273740966              -1789.6266345813
           1        2               -139.2028173376               -139.2028132357
           1        3                -10.2237226190                -10.2235219160
           1        4                  5.6355365073                  5.5558633521 ***
           1        5                -95.2452114632                -95.2452114537
           1        6                 -3.8413965043                 -3.8571292824
           1        7                  6.4035522332                  6.2277973139 ***
           1        8                  6.3860095444                  6.3839142324
           1        9                 19.3722793793                 19.3677446767
 * Note: Onsite integrals marked "***" above are less accurate than
 * onsite_accuracy_threshold =    0.03000 eV. Usually, this is harmless.
 * When in doubt, tighten the "radial" and/or "radial_multiplier" flags to check.

  Preparing densities etc. for the partition functions (integrals / Hartree potential).

  Preparations completed.
  max(cpu_time)          :      0.168 s.
  Wall clock time (cpu1) :      0.168 s.
------------------------------------------------------------
  After prepare_scf [GB]:     52.93

  Initializing index lists of integration centers etc. from given atomic structure:
  Mapping all atomic coordinates to central unit cell.

  Initializing the k-points
  Using symmetry for reducing the k-points
  | k-points reduced from:      512 to      260
  | Number of k-points                             :       260
  | Consuming       2080 KiB for k_phase_exx.
  The eigenvectors in the calculations are COMPLEX.
  | K-points in task   0:        65
  | K-points in task   1:        65
  | K-points in task   2:        65
  | K-points in task   3:        65
  | Number of basis functions in the Hamiltonian integrals :      2161
  | Number of basis functions in a single unit cell        :        50
  | Number of centers in hartree potential         :       732
  | Number of centers in hartree multipole         :       318
  | Number of centers in electron density summation:       198
  | Number of centers in basis integrals           :       198
  | Number of centers in integrals                 :       101
  | Number of centers in hamiltonian               :       198
  | Consuming        455 KiB for k_phase.
  | Number of super-cells (origin) [n_cells]                     :        2197
  | Number of super-cells (after PM_index) [n_cells]             :         112
  | Number of super-cells in hamiltonian [n_cells_in_hamiltonian]:         112
  | Size of matrix packed + index [n_hamiltonian_matrix_size] :       86523
  After initialize_bc_dependent_lists [GB]:     52.97

------------------------------------------------------------
          Begin self-consistency loop: Initialization.

          Date     :  20240501, Time     :  140705.293
------------------------------------------------------------
  Available memory per node after initialize_hartree_non_periodic_ewald [GB]:     52.97
  | Estimated reciprocal-space cutoff momentum G_max:         2.37737374 bohr^-1 .
  | Reciprocal lattice points for long-range Hartree potential:      58
  Available memory per node after initialize_recip_hartree_potential [GB]:     52.97
  Available memory per node after initialize_scalapack [GB]:     52.97
  Available memory per node after aims_elsi_init_scf [GB]:     52.97
  Available memory per node after initialize_fixed_grids [GB]:     52.97
  Partitioning the integration grid into batches with parallel hashing+maxmin method.
  | Number of batches:      140
  | Maximal batch size:     107
  | Minimal batch size:      50
  | Average batch size:      80.057
  | Standard deviation of batch sizes:      15.085

  Integration load balanced across     4 MPI tasks.
  Work distribution over tasks is as follows:
  Task     0 has       2756 integration points.
  Task     1 has       2808 integration points.
  Task     2 has       2837 integration points.
  Task     3 has       2807 integration points.
  Available memory per node after partition_grid [GB]:     52.97
  Initializing partition tables, free-atom densities, potentials, etc. across the integration grid (initialize_grid_storage).
  | initialize_grid_storage: Actual outermost partition radius vs. multipole_radius_free
  | (-- VB: in principle, multipole_radius_free should be larger, hence this output)
  | Species        1: Confinement radius =              4.999999999999999 AA, multipole_radius_free =              5.000694715736543 AA.
  | Species        1: outer_partition_radius set to              5.000694715736543 AA .
  | The sparse table of interatomic distances needs        212.76 kbyte instead of       313.63 kbyte of memory.
  | Net number of integration points:    11208
  | of which are non-zero points    :     9820
  | Numerical average free-atom electrostatic potential    :    -12.80111362 eV
  Available memory per node after initialize_grid_storage_p1 [GB]:     52.97
  Renormalizing the initial density to the exact electron count on the 3D integration grid.
  | Initial density: Formal number of electrons (from input files) :      28.0000000000
  | Integrated number of electrons on 3D grid     :      28.0047030870
  | Charge integration error                      :       0.0047030870
  | Normalization factor for density and gradient :       0.9998320608
  Renormalizing the free-atom superposition density to the exact electron count on the 3D integration grid.
  | Formal number of electrons (from input files) :      28.0000000000
  | Integrated number of electrons on 3D grid     :      28.0047030870
  | Charge integration error                      :       0.0047030870
  | Normalization factor for density and gradient :       0.9998320608
  Obtaining max. number of non-zero basis functions in each batch (get_n_compute_maxes).
  | Maximal number of non-zero basis functions:      691 in task     0
  | Maximal number of non-zero basis functions:      702 in task     1
  | Maximal number of non-zero basis functions:      690 in task     2
  | Maximal number of non-zero basis functions:      691 in task     3
  Available memory per node after get_n_compute_maxes_p1 [GB]:     52.97
  Allocating        0.992 MB for KS_eigenvector_complex
  Available memory per node after allocate_matrices [GB]:     52.96
  Available memory per node after init_comm_sparse_local_matrix_scalapack [GB]:     52.96
  Integrating Hamiltonian matrix: batch-based integration.
  Time summed over all CPUs for integration: real work        0.849 s, elapsed        0.860 s
  Available memory per node after integrate hamiltonian matrix [GB]:     52.93
  Integrating overlap matrix.
  Time summed over all CPUs for integration: real work        0.586 s, elapsed        0.594 s
  Available memory per node after integrate ovlp matrix [GB]:     52.93
  Available memory per node after ASI_callbacks invoke [GB]:     52.93
  Available memory per node after save_overlap_scalapack [GB]:     52.93

  Updating Kohn-Sham eigenvalues and eigenvectors using ELSI and the (modified) LAPACK eigensolver.
  Singularity check in k-point 4, task 0 (analysis for other k-points/tasks may follow below):
  Overlap matrix is not singular
  | Lowest and highest eigenvalues :  0.5692E-03,  0.7072E+01
  Finished singularity check of overlap matrix
  | Time :     0.000 s
  Starting LAPACK eigensolver
  Finished Cholesky decomposition
  | Time :     0.000 s
  Finished transformation to standard eigenproblem
  | Time :     0.000 s
  Finished solving standard eigenproblem
  | Time :     0.001 s
  Finished back-transformation of eigenvectors
  | Time :     0.000 s

  Obtaining occupation numbers and electronic chemical potential using ELSI.
  | Note that, for insulating systems, the printed 'chemical potential' value is not uniquely defined.
  | It can be anywhere in the energy gap, as long as it correctly separates occupied and unoccupied states.
  | In systems with a gap, the physically relevant chemical potential is the VBM or HOMO.

  | Chemical potential (Fermi level):    -5.45436522 eV
  Available memory per node after advance_KS_solution [GB]:     52.93
  Writing Kohn-Sham eigenvalues.
  K-point:       1 at    0.000000    0.000000    0.000000 (in units of recip. lattice)

  State    Occupation    Eigenvalue [Ha]    Eigenvalue [eV]
      1       2.00000         -65.787657        -1790.17323
      2       2.00000         -65.787657        -1790.17323
      3       2.00000          -5.140025         -139.86719
      4       2.00000          -5.139773         -139.86035
      5       2.00000          -3.524622          -95.90986
      6       2.00000          -3.524622          -95.90986
      7       2.00000          -3.524622          -95.90986
      8       2.00000          -3.524058          -95.89451
      9       2.00000          -3.524058          -95.89451
     10       2.00000          -3.524058          -95.89451
     11       2.00000          -0.654124          -17.79962
     12       2.00000          -0.224212           -6.10112
     13       2.00000          -0.224212           -6.10112
     14       2.00000          -0.224212           -6.10112
     15       0.00000          -0.122804           -3.34166
     16       0.00000          -0.122804           -3.34166
     17       0.00000          -0.122804           -3.34166
     18       0.00000          -0.111255           -3.02739
     19       0.00000           0.073566            2.00183
     20       0.00000           0.073566            2.00183

  What follows are estimated values for band gap, HOMO, LUMO, etc.
  | They are estimated on a discrete k-point grid and not necessarily exact.
  | For converged numbers, create a DOS and/or band structure plot on a denser k-grid.

  Highest occupied state (VBM) at     -6.10111576 eV (relative to internal zero)
  | Occupation number:      2.00000000
  | K-point:       1 at    0.000000    0.000000    0.000000 (in units of recip. lattice)

  Lowest unoccupied state (CBM) at    -5.17468827 eV (relative to internal zero)
  | Occupation number:      0.00000000
  | K-point:     133 at    0.375000    0.000000    0.375000 (in units of recip. lattice)

  ESTIMATED overall HOMO-LUMO gap:      0.92642748 eV between HOMO at k-point 1 and LUMO at k-point 133
  | This appears to be an indirect band gap.
  | Smallest direct gap :      2.71042881 eV for k_point 179 at    0.500000    0.000000    0.000000 (in units of recip. lattice)
  The gap value is above 0.2 eV. Unless you are using a very sparse k-point grid,
  this system is most likely an insulator or a semiconductor.
  Calculating total energy contributions from superposition of free atom densities.

  Total energy components:
  | Sum of eigenvalues            :        -329.24099265 Ha       -8959.10324415 eV
  | XC energy correction          :         -41.71062250 Ha       -1135.00378671 eV
  | XC potential correction       :          53.86666957 Ha        1465.78665747 eV
  | Free-atom electrostatic energy:        -263.65639643 Ha       -7174.45557928 eV
  | Hartree energy correction     :          -0.00000000 Ha          -0.00000000 eV
  | Entropy correction            :          -0.00000000 Ha          -0.00000000 eV
  | ---------------------------
  | Total energy                  :        -580.74134202 Ha      -15802.77595266 eV
  | Total energy, T -> 0          :        -580.74134202 Ha      -15802.77595266 eV  <-- do not rely on this value for anything but (periodic) metals
  | Electronic free energy        :        -580.74134202 Ha      -15802.77595266 eV

  Derived energy quantities:
  | Kinetic energy                :         582.27525526 Ha       15844.51585582 eV
  | Electrostatic energy          :       -1121.30597478 Ha      -30512.28802177 eV
  | Energy correction for multipole
  | error in Hartree potential    :           0.00000000 Ha           0.00000000 eV
  | Sum of eigenvalues per atom                           :       -4479.55162207 eV
  | Total energy (T->0) per atom                          :       -7901.38797633 eV  <-- do not rely on this value for anything but (periodic) metals
  | Electronic free energy per atom                       :       -7901.38797633 eV
  
  --------------------------------------------
  Constructing auxiliary basis (full product) ...
  
  Product basis:
  | charge radius: extent of product basis function
  | field radius: extent of its Coulomb potential
  | Species   l  charge radius    field radius
  |    Si     0     4.318366 A      4.318366 A
  |    Si     0     4.371482 A      6.705824 A
  |    Si     0     4.425251 A      8.775170 A
  |    Si     0     4.534782 A     12.662889 A
  |    Si     0     4.590560 A     18.497769 A
  |    Si     0     4.590560 A     21.160261 A
  |    Si     0     4.534782 A     23.334310 A
  |    Si     0     4.590560 A     24.503715 A
  |    Si     0     4.590560 A     25.110215 A
  |    Si     0     4.590560 A     25.110215 A
  |    Si     1     4.318366 A      4.318366 A
  |    Si     1     4.371482 A      5.124469 A
  |    Si     1     4.479682 A     10.541300 A
  |    Si     1     4.534782 A     13.297494 A
  |    Si     1     4.590560 A     16.170285 A
  |    Si     1     4.590560 A     21.950719 A
  |    Si     1     4.647024 A     23.621323 A
  |    Si     1     4.647024 A     24.805112 A
  |    Si     1     4.647024 A     25.110215 A
  |    Si     1     4.647024 A     25.419071 A
  |    Si     2     4.318366 A      4.318366 A
  |    Si     2     4.425251 A      6.464344 A
  |    Si     2     4.479682 A      9.559171 A
  |    Si     2     4.534782 A     10.670958 A
  |    Si     2     4.534782 A     18.955613 A
  |    Si     2     4.590560 A     22.220713 A
  |    Si     2     4.590560 A     23.911865 A
  |    Si     2     4.590560 A     24.805112 A
  |    Si     2     4.647024 A     25.419071 A
  |    Si     3     4.371482 A      4.371482 A
  |    Si     3     4.479682 A      8.154551 A
  |    Si     3     4.534782 A     15.587984 A
  |    Si     3     4.590560 A     19.905579 A
  |    Si     3     4.534782 A     22.494028 A
  |    Si     3     4.590560 A     24.205982 A
  |    Si     3     4.590560 A     25.110215 A
  |    Si     4     4.534782 A      8.563219 A
  |    Si     4     4.479682 A     17.614989 A
  |    Si     4     4.534782 A     21.684006 A
  |    Si     4     4.590560 A     23.621323 A
  |    Si     4     4.590560 A     24.805112 A
  |    Si     5     4.534782 A     21.684006 A
  |    Si     5     4.534782 A     23.621323 A
  |    Si     6     4.534782 A     22.770705 A

  | Shrink_full_auxil_basis : there are       44  radial auxiliary wave functions
                            accepted and      39 rejected.
  | Shrink_full_auxil_basis : there are totally               42372 partial auxiliary wave functions.
  prodbas_tasks_distribution_pbc not up to date - distributing tasks.

  | Number of product basis functions per thread : 10593
  Parallel distribution of product basis not up to date - distributing tasks.

  | Number of product basis functions per thread :   107
  | Minimal requirement for computer memory :           0.005 Gbs
  Minimal free memory per node on init_fm entry [GB]:     52.90
  -----------------------------------------
  --- Initializing Fock matrix calculations
  -----------------------------------------
  screening_threshold (crit_val) =  0.000000100000
  coul_mat_threshold =  0.000000000100
  No atoms are split internally
  Number of super-cells in X Y Z:       6       6       6
  Number of atoms pairs total:          334
  Atom pair distribution:
  Cell:       -3       0       1 atom pairs:        1
  Cell:       -3       1       0 atom pairs:        1
  Cell:       -3       1       1 atom pairs:        3
  Cell:       -2      -1       0 atom pairs:        1
  Cell:       -2      -1       1 atom pairs:        3
  Cell:       -2      -1       2 atom pairs:        3
  Cell:       -2       0      -1 atom pairs:        1
  Cell:       -2       0       0 atom pairs:        3
  Cell:       -2       0       1 atom pairs:        4
  Cell:       -2       0       2 atom pairs:        4
  Cell:       -2       1      -1 atom pairs:        3
  Cell:       -2       1       0 atom pairs:        4
  Cell:       -2       1       1 atom pairs:        4
  Cell:       -2       1       2 atom pairs:        3
  Cell:       -2       2      -1 atom pairs:        3
  Cell:       -2       2       0 atom pairs:        4
  Cell:       -2       2       1 atom pairs:        3
  Cell:       -1      -2       0 atom pairs:        1
  Cell:       -1      -2       1 atom pairs:        3
  Cell:       -1      -2       2 atom pairs:        3
  Cell:       -1      -1      -1 atom pairs:        3
  Cell:       -1      -1       0 atom pairs:        4
  Cell:       -1      -1       1 atom pairs:        4
  Cell:       -1      -1       2 atom pairs:        4
  Cell:       -1      -1       3 atom pairs:        3
  Cell:       -1       0      -2 atom pairs:        1
  Cell:       -1       0      -1 atom pairs:        4
  Cell:       -1       0       0 atom pairs:        4
  Cell:       -1       0       1 atom pairs:        4
  Cell:       -1       0       2 atom pairs:        4
  Cell:       -1       0       3 atom pairs:        1
  Cell:       -1       1      -2 atom pairs:        3
  Cell:       -1       1      -1 atom pairs:        4
  Cell:       -1       1       0 atom pairs:        4
  Cell:       -1       1       1 atom pairs:        4
  Cell:       -1       1       2 atom pairs:        3
  Cell:       -1       2      -2 atom pairs:        3
  Cell:       -1       2      -1 atom pairs:        4
  Cell:       -1       2       0 atom pairs:        4
  Cell:       -1       2       1 atom pairs:        3
  Cell:       -1       3      -1 atom pairs:        3
  Cell:       -1       3       0 atom pairs:        1
  Cell:        0      -3       1 atom pairs:        1
  Cell:        0      -2      -1 atom pairs:        1
  Cell:        0      -2       0 atom pairs:        3
  Cell:        0      -2       1 atom pairs:        4
  Cell:        0      -2       2 atom pairs:        4
  Cell:        0      -1      -2 atom pairs:        1
  Cell:        0      -1      -1 atom pairs:        4
  Cell:        0      -1       0 atom pairs:        4
  Cell:        0      -1       1 atom pairs:        4
  Cell:        0      -1       2 atom pairs:        4
  Cell:        0      -1       3 atom pairs:        1
  Cell:        0       0      -2 atom pairs:        3
  Cell:        0       0      -1 atom pairs:        4
  Cell:        0       0       0 atom pairs:        4
  Cell:        0       0       1 atom pairs:        4
  Cell:        0       0       2 atom pairs:        3
  Cell:        0       1      -3 atom pairs:        1
  Cell:        0       1      -2 atom pairs:        4
  Cell:        0       1      -1 atom pairs:        4
  Cell:        0       1       0 atom pairs:        4
  Cell:        0       1       1 atom pairs:        4
  Cell:        0       1       2 atom pairs:        1
  Cell:        0       2      -2 atom pairs:        4
  Cell:        0       2      -1 atom pairs:        4
  Cell:        0       2       0 atom pairs:        3
  Cell:        0       2       1 atom pairs:        1
  Cell:        0       3      -1 atom pairs:        1
  Cell:        1      -3       0 atom pairs:        1
  Cell:        1      -3       1 atom pairs:        3
  Cell:        1      -2      -1 atom pairs:        3
  Cell:        1      -2       0 atom pairs:        4
  Cell:        1      -2       1 atom pairs:        4
  Cell:        1      -2       2 atom pairs:        3
  Cell:        1      -1      -2 atom pairs:        3
  Cell:        1      -1      -1 atom pairs:        4
  Cell:        1      -1       0 atom pairs:        4
  Cell:        1      -1       1 atom pairs:        4
  Cell:        1      -1       2 atom pairs:        3
  Cell:        1       0      -3 atom pairs:        1
  Cell:        1       0      -2 atom pairs:        4
  Cell:        1       0      -1 atom pairs:        4
  Cell:        1       0       0 atom pairs:        4
  Cell:        1       0       1 atom pairs:        4
  Cell:        1       0       2 atom pairs:        1
  Cell:        1       1      -3 atom pairs:        3
  Cell:        1       1      -2 atom pairs:        4
  Cell:        1       1      -1 atom pairs:        4
  Cell:        1       1       0 atom pairs:        4
  Cell:        1       1       1 atom pairs:        3
  Cell:        1       2      -2 atom pairs:        3
  Cell:        1       2      -1 atom pairs:        3
  Cell:        1       2       0 atom pairs:        1
  Cell:        2      -2      -1 atom pairs:        3
  Cell:        2      -2       0 atom pairs:        4
  Cell:        2      -2       1 atom pairs:        3
  Cell:        2      -1      -2 atom pairs:        3
  Cell:        2      -1      -1 atom pairs:        4
  Cell:        2      -1       0 atom pairs:        4
  Cell:        2      -1       1 atom pairs:        3
  Cell:        2       0      -2 atom pairs:        4
  Cell:        2       0      -1 atom pairs:        4
  Cell:        2       0       0 atom pairs:        3
  Cell:        2       0       1 atom pairs:        1
  Cell:        2       1      -2 atom pairs:        3
  Cell:        2       1      -1 atom pairs:        3
  Cell:        2       1       0 atom pairs:        1
  Cell:        3      -1      -1 atom pairs:        3
  Cell:        3      -1       0 atom pairs:        1
  Cell:        3       0      -1 atom pairs:        1
  sparsity of pfbvk:   1.00000000
  Number of atoms pairs in BvK cells:          334
  Max. memory consumption per node for Pulay mixing [GB]:      0.14
  Minimal total memory per node [GB]:     65.75
  Minimal free memory per node [GB]:     52.79
  --- Initializing LVL triples, type HSE
  | Storage requirements for basis-basbas products (processor-local):
  |   Species Si: n_prodsfn:   629; storage:       19.66 MiB.

  --- Initializing Coulomb matrix calculations, type HSE
  Preparing TB like auxiliary 2-center HSE-pot matrix
  SBT integration errors (all should be 'small'):
  large logFT aliasing -> increase N/lnrange
  large SBT aliasing -> decrease lnk0 & increase lnk0+lnrange
  large SBT ringing -> decrease lnr0 & increase lnr0+lnrange
  |            El't  L: logFT-al.   small-k   large-k   small-r   large-r
  | Need to store  2048 splines of   235 points taking       3800 KiB.
  | Spline reduction from  4096 to   235 points by (cutting and)     1 x coarsening gives error:  0.00E+00
  | Maximum value outside interaction range:  7.55E-14
  Finished with initialize_tb_auxmat/lvl_triples, time:        0.488
  --- Calculating Coulomb matrices
  Upper limit for memory consumption per node [GB] for Coulomb matrices if no compression occurs:       0.003
  Upper limit for temporary arrays in Coulomb matrix initalization [GB]:      1.20
  Min./max. time for Coulomb matrix computation [s]:      5.85      5.91
  Max. memory consumption per node for global Coulomb matrix [GB]:      0.32
  Time to calculate Coulomb Matrices   :        5.947
  After init_coulomb_tuned [GB]:     52.00
  Max. memory consumption per node for uncompressed ovlp3fn matrix [GB]:       0.357
  --- Calculating OVLP3FN
  --- Done calculating OVLP3FN, time:       17.916
  After init_ovlp3fn_tuned2 [GB]:     51.87
  Max. memory consumption per node for compressed global ovlp3fn matrix [GB]:       0.545
  Atomic logSBT for 2-center HSE-pot matrix    :  max(cpu_time)    wall_clock(cpu1)
  | TB initialization                           :        0.303 s           0.304 s
  | TB usage                                    :        2.565 s           2.566 s

  Atomic logSBT for LVL-triples                :  max(cpu_time)    wall_clock(cpu1)
  | Multiplication with kernel                  :        0.060 s           0.051 s
  | Main matrix multiplication                  :       13.690 s          12.855 s
  | Analytic angular integration                :        0.100 s           0.101 s
  | Kernel construction                         :        0.092 s           0.087 s
  | Overall 2-center overlap time               :       14.449 s          13.596 s
  | 3-center preparation multiplications        :        0.010 s           0.009 s
  | 3-center preparation SBTs                   :        0.532 s           0.531 s
  | 3-center combinations                       :       15.720 s          14.887 s
  | Overal 3-center time                        :       16.258 s          15.427 s
  | LVL initialization                          :        0.184 s           0.184 s
  | Whole LVL-triples                           :        0.184 s           0.184 s

  Assumed free memory per node for Fock matrix prefactors [GB]     46.21
  Memory per instance for Coulomb / ovlp matrix [GB]      0.32      0.55
  Number of nodes, tasks per node     1     4
  Number of instances:    1
  -----------------------------------------------------
  Dividing atoms among tasks for exact exchange energy:
  Atom:     1 Weight:  0.22336E+08
  Atom:     2 Weight:  0.22336E+08

  Average weight per task:  0.11168E+08

  Number of "big" (above average) atoms  :     2
  Number of "small" (below average) atoms:     0
  All atoms have above average work per task
  Atoms will be divided among tasks to get best load distribution

  Atom division among tasks:
  Atom     1: (initial) task:     0, # of tasks:     2
  Atom     2: (initial) task:     2, # of tasks:     2

  -----------------------------------------------------
  Task      0: my_n_atoms2:      1 my_atom_list:      1
  Task      1: my_n_atoms2:      1 my_atom_list:      1
  Task      2: my_n_atoms2:      1 my_atom_list:      2
  Task      3: my_n_atoms2:      1 my_atom_list:      2
  Task      0: my_n_atom_pairs:     83
  Task      1: my_n_atom_pairs:     84
  Task      2: my_n_atom_pairs:     83
  Task      3: my_n_atom_pairs:     84
  Transferring Coulomb matrix to final data layout
  Coulomb matrix communicaton time [s]    0.06
  Max. memory per node for ovlp3fn matrices:        0.191 GB
  Total memory for ovlp3fn matrices:        0.191 GB
  --- Done getting norm of OVLP3FN, time:        0.002
  Total memory for ovlp3fn matrices:        0.191 GB
  --- time for get_ovlp3fn:        0.037
  Max. memory consumption per node for Hartree Fock matrix [GB]      0.14
  Blocksize for Fock matrix computation:     1
  Minimal free memory per node after Fock matrix initialization [GB]:     52.01
  Initialize hartree_potential_storage
  Max. number of atoms included in rho_multipole:            2

  End scf initialization - timings             :  max(cpu_time)    wall_clock(cpu1)
  | Time for scf. initialization                :       25.339 s          25.400 s
  | Boundary condition initialization           :        0.104 s           0.105 s
  | Integration                                 :        0.365 s           0.366 s
  | Solution of K.-S. eqns.                     :        0.125 s           0.125 s
  | Grid partitioning                           :        0.045 s           0.045 s
  | Preloading free-atom quantities on grid     :        0.118 s           0.118 s
  | Free-atom superposition energy              :        0.041 s           0.041 s
  | Total energy evaluation                     :        0.000 s           0.000 s
  | Product basis setup: Total time             :       24.645 s          24.704 s

  Partial memory accounting:
  | Current value for overall tracked memory usage:
  |   Minimum:       48.128 MB (on task 2)
  |   Maximum:       49.035 MB (on task 3)
  |   Average:       48.582 MB
  | Peak value for overall tracked memory usage:
  |   Minimum:      181.767 MB (on task 0 after allocating aux_mat)
  |   Maximum:      181.767 MB (on task 0 after allocating aux_mat)
  |   Average:      181.767 MB
  | Largest tracked array allocation so far:
  |   Minimum:      178.891 MB (aux_mat on task 0)
  |   Maximum:      178.891 MB (aux_mat on task 0)
  |   Average:      178.891 MB
  Note:  These values currently only include a subset of arrays which are explicitly tracked.
  The "true" memory usage will be greater.
------------------------------------------------------------
  Available memory after initialize_scf [GB]:     52.01
  Available memory after allocating mixing [GB]:     52.01
  Evaluating new KS density using the density matrix
  Evaluating density matrix
  Time summed over all CPUs for getting density from density matrix: real work        1.309 s, elapsed        1.324 s
  Integration grid: deviation in total charge (<rho> - N_e) =   7.105427E-15

  Time for density update prior                :  max(cpu_time)    wall_clock(cpu1)
  | self-consistency iterative process          :        0.351 s           0.352 s
  Available memory before start of SCF loop [GB]:     52.03

------------------------------------------------------------
          Begin self-consistency iteration #    1

  Date     :  20240501, Time     :  140731.046
------------------------------------------------------------
  Pulay mixing of updated and previous charge densities.
  Available memory per node after mixing [GB]:     52.03
  Renormalizing the density to the exact electron count on the 3D integration grid.
  | Formal number of electrons (from input files) :      28.0000000000
  | Integrated number of electrons on 3D grid     :      28.0000000000
  | Charge integration error                      :       0.0000000000
  | Normalization factor for density and gradient :       1.0000000000

  Evaluating partitioned Hartree potential by multipole expansion.
  | Original multipole sum: apparent total charge =   0.416166E-13
  | Sum of charges compensated after spline to logarithmic grids =  -0.473899E-05
  | Analytical far-field extrapolation by fixed multipoles:
  | Hartree multipole sum: apparent total charge =  -0.000000E+00
  Summing up the Hartree potential.
  Time summed over all CPUs for potential: real work        0.080 s, elapsed        0.081 s
  | RMS charge density error from multipole expansion :   0.588174E-03
  | Average real-space part of the electrostatic potential :      0.02096085 eV

  Integrating Hamiltonian matrix: batch-based integration.
  Time summed over all CPUs for integration: real work        0.859 s, elapsed        0.870 s
  Max. memory consumption per node for dm_cols [GB]:      0.02
  Max. memory consumption per node for fock_matrix [GB]:      0.02
  Calculating non-local Hartree-Fock exchange by two-center RI (RI-LVL).
  screening_threshold (crit_val) =  0.000000100000
  Max. allocated memory per node for ovlp3fn_rcv [GB]:      0.01
  Max. allocated memory per node for fock_matrix_row [GB]:      0.00
  Max. memory consumption per node for m_ovlp_fact11 [GB]:      0.00
  Max. memory consumption per node for d_aux_mem [GB]:      0.00
  Max. memory consumption per node for dm_x_o3fn_aux [GB]:      0.00
  Max. allocated memory per node for tmp1/tmp2 [GB]:      0.18
   final impselect vector           2           1           2           1
   Time for autotuning:   0.88036060299999974
  Exact exchange progress report - outermost block loop i_block: 1 ..      50
  |        1         2         3         4         5         6         7         8         9        10
  |       11        12        13        14        15        16        17        18        19        20
  |       21        22        23        24        25        26        27        28        29        30
  |       31        32        33        34        35        36        37        38        39        40
  |       41        42        43        44        45        46        47        48        49        50
 Total ovlp3fn data transfer [GB]  0.35321982624009252
  Average sparsity of tmp1/20.48535156
  Average sparsity of fock_matrix_row0.86161131
  Full exact exchange energy:    1065.890382031498 eV.
  Detailed communication and barrier times:
  | Comm    0:        0.000       0.000       0.000       0.147       0.004       0.000       0.000       0.000       0.000       0.188
  | Comm    1:        0.000       0.000       0.000       0.147       0.004       0.000       0.000       0.000       0.000       0.188
  | Comm    2:        0.000       0.000       0.000       0.145       0.004       0.000       0.000       0.000       0.000       0.227
  | Comm    3:        0.000       0.000       0.000       0.145       0.004       0.000       0.000       0.000       0.000       0.227
  | Imbalance    0:        0.006       0.000       0.000       0.001       1.033       0.000       0.045       0.000       0.000       1.493
  | Imbalance    1:        0.015       0.000       0.000       0.123       0.842       0.000       0.044       0.000       0.000       0.000
  | Imbalance    2:        0.002       0.000       0.000       0.015       0.178       0.000       0.045       0.000       0.000       1.947
  | Imbalance    3:        0.014       0.000       0.000       0.122       0.031       0.000       0.043       0.000       0.000       0.000
  Times            DM_x_o3fn   CM_prod_1   CM_prod_2   tmp2_prod        Sync   Imbalance       Other  Total calc
  | Times    0:        8.042      13.677       2.306       6.019       0.340       2.578       0.276      33.239
  | Times    1:        7.919      14.924       2.555       6.211       0.340       1.024       0.266      33.239
  | Times    2:        8.015      14.092       2.289       5.980       0.377       2.186       0.298      33.239
  | Times    3:        7.908      15.731       2.599       6.128       0.377       0.211       0.284      33.239
  | Times  sum:       31.883      58.425       9.749      24.339       1.434       5.999       1.125     132.955

  Decomposition of Other based on code block (only on MPI task 0):
  Times             Block #1    Block #2    Block #3    Block #4    Block #5    Block #6    Block #7    Block #8
  | Times    0:        0.018       0.000       0.003       0.003       0.008       0.001       0.093       0.000

  Times             Block #9   Block #10   Block #11   Block #12   Block #13   Block #14   Block #15   Block #16
  | Times    0:        0.031       0.000       0.086       0.015       0.000       0.017       0.003       0.002

  Times            Block Sum    Expected
  | Times    0:        0.279       0.276
  Time for Fock matrix mixing     0.008

  Updating Kohn-Sham eigenvalues and eigenvectors using ELSI and the (modified) LAPACK eigensolver.
  Starting LAPACK eigensolver
  Finished Cholesky decomposition
  | Time :     0.000 s
  Finished transformation to standard eigenproblem
  | Time :     0.000 s
  Finished solving standard eigenproblem
  | Time :     0.000 s
  Finished back-transformation of eigenvectors
  | Time :     0.000 s

  Obtaining occupation numbers and electronic chemical potential using ELSI.
  | Note that, for insulating systems, the printed 'chemical potential' value is not uniquely defined.
  | It can be anywhere in the energy gap, as long as it correctly separates occupied and unoccupied states.
  | In systems with a gap, the physically relevant chemical potential is the VBM or HOMO.

  | Chemical potential (Fermi level):    -6.36711076 eV
  Writing Kohn-Sham eigenvalues.
  K-point:       1 at    0.000000    0.000000    0.000000 (in units of recip. lattice)

  State    Occupation    Eigenvalue [Ha]    Eigenvalue [eV]
      1       2.00000         -66.625678        -1812.97693
      2       2.00000         -66.625675        -1812.97686
      3       2.00000          -5.399736         -146.93431
      4       2.00000          -5.399436         -146.92614
      5       2.00000          -3.707511         -100.88650
      6       2.00000          -3.707511         -100.88650
      7       2.00000          -3.707511         -100.88650
      8       2.00000          -3.706929         -100.87068
      9       2.00000          -3.706929         -100.87068
     10       2.00000          -3.706929         -100.87068
     11       2.00000          -0.715096          -19.45874
     12       2.00000          -0.239902           -6.52807
     13       2.00000          -0.239902           -6.52807
     14       2.00000          -0.239902           -6.52807
     15       0.00000          -0.105221           -2.86322
     16       0.00000          -0.105221           -2.86322
     17       0.00000          -0.105221           -2.86322
     18       0.00000          -0.089368           -2.43182
     19       0.00000           0.100884            2.74520
     20       0.00000           0.100884            2.74520

  What follows are estimated values for band gap, HOMO, LUMO, etc.
  | They are estimated on a discrete k-point grid and not necessarily exact.
  | For converged numbers, create a DOS and/or band structure plot on a denser k-grid.

  Highest occupied state (VBM) at     -6.52807293 eV (relative to internal zero)
  | Occupation number:      2.00000000
  | K-point:       1 at    0.000000    0.000000    0.000000 (in units of recip. lattice)

  Lowest unoccupied state (CBM) at    -4.82703262 eV (relative to internal zero)
  | Occupation number:      0.00000000
  | K-point:     149 at    0.375000    0.375000    0.000000 (in units of recip. lattice)

  ESTIMATED overall HOMO-LUMO gap:      1.70104030 eV between HOMO at k-point 1 and LUMO at k-point 149
  | This appears to be an indirect band gap.
  | Smallest direct gap :      3.62305535 eV for k_point 179 at    0.500000    0.000000    0.000000 (in units of recip. lattice)
  The gap value is above 0.2 eV. Unless you are using a very sparse k-point grid,
  this system is most likely an insulator or a semiconductor.

  Total energy components:
  | Sum of eigenvalues            :        -336.08514835 Ha       -9145.34219638 eV
  | XC energy correction          :         -22.21946064 Ha        -604.62228694 eV
  | XC potential correction       :          41.18311807 Ha        1120.64966064 eV
  | Free-atom electrostatic energy:        -263.65639643 Ha       -7174.45557928 eV
  | Hartree energy correction     :          -0.04275178 Ha          -1.16333508 eV
  | Entropy correction            :          -0.00000000 Ha          -0.00000000 eV
  | ---------------------------
  | Total energy                  :        -580.82063913 Ha      -15804.93373703 eV
  | Total energy, T -> 0          :        -580.82063913 Ha      -15804.93373703 eV  <-- do not rely on this value for anything but (periodic) metals
  | Electronic free energy        :        -580.82063913 Ha      -15804.93373703 eV

  Derived energy quantities:
  | Kinetic energy                :         582.30703776 Ha       15845.38070142 eV
  | Electrostatic energy          :       -1121.31142913 Ha      -30512.43644234 eV
  | Energy correction for multipole
  | error in Hartree potential    :           0.00080006 Ha           0.02177075 eV
  | Sum of eigenvalues per atom                           :       -4572.67109819 eV
  | Total energy (T->0) per atom                          :       -7902.46686852 eV  <-- do not rely on this value for anything but (periodic) metals
  | Electronic free energy per atom                       :       -7902.46686852 eV
  Evaluating new KS density using the density matrix
  Evaluating density matrix
  Time summed over all CPUs for getting density from density matrix: real work        1.307 s, elapsed        1.324 s
  Integration grid: deviation in total charge (<rho> - N_e) =   7.105427E-15

  Self-consistency convergence accuracy:
  | Change of charge density      :  0.1092E+00
  | Change of unmixed KS density  :  0.3262E+02
  | Change of sum of eigenvalues  : -0.1862E+03 eV
  | Change of total energy        : -0.2158E+01 eV


------------------------------------------------------------
  End self-consistency iteration #     1       :  max(cpu_time)    wall_clock(cpu1)
  | Time for this iteration                     :       34.786 s          34.894 s
  | Charge density update                       :        0.351 s           0.351 s
  | Density mixing                              :        0.000 s           0.000 s
  | Hartree multipole update                    :        0.001 s           0.001 s
  | Hartree multipole summation                 :        0.082 s           0.082 s
  | Integration                                 :        0.218 s           0.219 s
  | Fock matrix evaluation                      :       34.021 s          34.127 s
  | Solution of K.-S. eqns.                     :        0.112 s           0.112 s
  | Total energy evaluation                     :        0.000 s           0.001 s

  Partial memory accounting:
  | Current value for overall tracked memory usage:
  |   Minimum:       49.708 MB (on task 2)
  |   Maximum:       50.599 MB (on task 3)
  |   Average:       50.142 MB
  | Peak value for overall tracked memory usage:
  |   Minimum:      181.767 MB (on task 0 after allocating aux_mat)
  |   Maximum:      181.767 MB (on task 0 after allocating aux_mat)
  |   Average:      181.767 MB
  | Largest tracked array allocation so far:
  |   Minimum:      178.891 MB (aux_mat on task 0)
  |   Maximum:      178.891 MB (aux_mat on task 0)
  |   Average:      178.891 MB
  Note:  These values currently only include a subset of arrays which are explicitly tracked.
  The "true" memory usage will be greater.
------------------------------------------------------------

------------------------------------------------------------
          Begin self-consistency iteration #    2

  Date     :  20240501, Time     :  140805.940
------------------------------------------------------------
  Pulay mixing of updated and previous charge densities.
  Available memory per node after mixing [GB]:     51.83
  Renormalizing the density to the exact electron count on the 3D integration grid.
  | Formal number of electrons (from input files) :      28.0000000000
  | Integrated number of electrons on 3D grid     :      28.0000000000
  | Charge integration error                      :      -0.0000000000
  | Normalization factor for density and gradient :       1.0000000000

  Evaluating partitioned Hartree potential by multipole expansion.
  | Original multipole sum: apparent total charge =   0.212277E-13
  | Sum of charges compensated after spline to logarithmic grids =   0.128687E-04
  | Analytical far-field extrapolation by fixed multipoles:
  | Hartree multipole sum: apparent total charge =   0.212228E-13
  Summing up the Hartree potential.
  Time summed over all CPUs for potential: real work        0.085 s, elapsed        0.087 s
  | RMS charge density error from multipole expansion :   0.161463E-02
  | Average real-space part of the electrostatic potential :     -0.05730944 eV

  Integrating Hamiltonian matrix: batch-based integration.
  Time summed over all CPUs for integration: real work        0.859 s, elapsed        0.869 s
  Calculating non-local Hartree-Fock exchange by two-center RI (RI-LVL).
  screening_threshold (crit_val) =  0.000000100000
  Exact exchange progress report - outermost block loop i_block: 1 ..      50
  |        1         2         3         4         5         6         7         8         9        10
  |       11        12        13        14        15        16        17        18        19        20
  |       21        22        23        24        25        26        27        28        29        30
  |       31        32        33        34        35        36        37        38        39        40
  |       41        42        43        44        45        46        47        48        49        50
 Total ovlp3fn data transfer [GB]  0.34627595357596874
  Average sparsity of tmp1/20.48242188
  Average sparsity of fock_matrix_row0.84842771
  Full exact exchange energy:    1067.159347568902 eV.
  Times            DM_x_o3fn   CM_prod_1   CM_prod_2   tmp2_prod        Sync   Imbalance       Other  Total calc
  | Times    0:        7.928      13.174       2.200       6.016       0.334       2.526       0.278      32.457
  | Times    1:        7.820      14.385       2.447       6.198       0.334       1.004       0.268      32.457
  | Times    2:        7.922      13.563       2.188       5.968       0.366       2.153       0.297      32.457
  | Times    3:        7.817      15.180       2.490       6.131       0.366       0.188       0.285      32.457
  | Times  sum:       31.488      56.301       9.325      24.313       1.401       5.871       1.129     129.828

  Decomposition of Other based on code block (only on MPI task 0):
  Times             Block #1    Block #2    Block #3    Block #4    Block #5    Block #6    Block #7    Block #8
  | Times    0:        0.018       0.000       0.003       0.003       0.010       0.001       0.093       0.000

  Times             Block #9   Block #10   Block #11   Block #12   Block #13   Block #14   Block #15   Block #16
  | Times    0:        0.031       0.000       0.084       0.015       0.000       0.017       0.004       0.002

  Times            Block Sum    Expected
  | Times    0:        0.280       0.278
  Time for Fock matrix mixing     0.010

  Updating Kohn-Sham eigenvalues and eigenvectors using ELSI and the (modified) LAPACK eigensolver.
  Starting LAPACK eigensolver
  Finished Cholesky decomposition
  | Time :     0.000 s
  Finished transformation to standard eigenproblem
  | Time :     0.000 s
  Finished solving standard eigenproblem
  | Time :     0.000 s
  Finished back-transformation of eigenvectors
  | Time :     0.000 s

  Obtaining occupation numbers and electronic chemical potential using ELSI.
  | Note that, for insulating systems, the printed 'chemical potential' value is not uniquely defined.
  | It can be anywhere in the energy gap, as long as it correctly separates occupied and unoccupied states.
  | In systems with a gap, the physically relevant chemical potential is the VBM or HOMO.

  | Chemical potential (Fermi level):    -6.45921523 eV
  What follows are estimated values for band gap, HOMO, LUMO, etc.
  | They are estimated on a discrete k-point grid and not necessarily exact.
  | For converged numbers, create a DOS and/or band structure plot on a denser k-grid.

  Highest occupied state (VBM) at     -6.65209568 eV (relative to internal zero)
  | Occupation number:      2.00000000
  | K-point:       1 at    0.000000    0.000000    0.000000 (in units of recip. lattice)

  Lowest unoccupied state (CBM) at    -4.86329099 eV (relative to internal zero)
  | Occupation number:      0.00000000
  | K-point:     149 at    0.375000    0.375000    0.000000 (in units of recip. lattice)

  ESTIMATED overall HOMO-LUMO gap:      1.78880469 eV between HOMO at k-point 1 and LUMO at k-point 149
  | This appears to be an indirect band gap.
  | Smallest direct gap :      3.65504322 eV for k_point 179 at    0.500000    0.000000    0.000000 (in units of recip. lattice)
  The gap value is above 0.2 eV. Unless you are using a very sparse k-point grid,
  this system is most likely an insulator or a semiconductor.

  Checking to see if s.c.f. parameters should be adjusted.
  The system likely has a gap. Increased the default Pulay mixing parameter (charge_mix_param). Value:   0.200000 .
  Kept the default occupation width. Value:   0.010000 eV.

  Total energy components:
  | Sum of eigenvalues            :        -336.27763658 Ha       -9150.58006784 eV
  | XC energy correction          :         -22.20812701 Ha        -604.31388318 eV
  | XC potential correction       :          41.16878004 Ha        1120.25950293 eV
  | Free-atom electrostatic energy:        -263.65639643 Ha       -7174.45557928 eV
  | Hartree energy correction     :           0.15013652 Ha           4.08542265 eV
  | Entropy correction            :          -0.00000000 Ha          -0.00000000 eV
  | ---------------------------
  | Total energy                  :        -580.82324347 Ha      -15805.00460472 eV
  | Total energy, T -> 0          :        -580.82324347 Ha      -15805.00460472 eV  <-- do not rely on this value for anything but (periodic) metals
  | Electronic free energy        :        -580.82324347 Ha      -15805.00460472 eV

  Derived energy quantities:
  | Kinetic energy                :         582.21701322 Ha       15842.93100926 eV
  | Electrostatic energy          :       -1121.23525837 Ha      -30510.36373040 eV
  | Energy correction for multipole
  | error in Hartree potential    :          -0.00217327 Ha          -0.05913758 eV
  | Sum of eigenvalues per atom                           :       -4575.29003392 eV
  | Total energy (T->0) per atom                          :       -7902.50230236 eV  <-- do not rely on this value for anything but (periodic) metals
  | Electronic free energy per atom                       :       -7902.50230236 eV
  Evaluating new KS density using the density matrix
  Evaluating density matrix
  Time summed over all CPUs for getting density from density matrix: real work        1.308 s, elapsed        1.323 s
  Integration grid: deviation in total charge (<rho> - N_e) =  -7.105427E-15

  Self-consistency convergence accuracy:
  | Change of charge density      :  0.1179E+00
  | Change of unmixed KS density  :  0.1885E-01
  | Change of sum of eigenvalues  : -0.5238E+01 eV
  | Change of total energy        : -0.7087E-01 eV


------------------------------------------------------------
  End self-consistency iteration #     2       :  max(cpu_time)    wall_clock(cpu1)
  | Time for this iteration                     :       33.136 s          33.239 s
  | Charge density update                       :        0.350 s           0.351 s
  | Density mixing                              :        0.001 s           0.000 s
  | Hartree multipole update                    :        0.001 s           0.001 s
  | Hartree multipole summation                 :        0.088 s           0.088 s
  | Integration                                 :        0.218 s           0.219 s
  | Fock matrix evaluation                      :       32.366 s          32.467 s
  | Solution of K.-S. eqns.                     :        0.112 s           0.112 s
  | Total energy evaluation                     :        0.000 s           0.001 s

  Partial memory accounting:
  | Current value for overall tracked memory usage:
  |   Minimum:       49.709 MB (on task 2)
  |   Maximum:       50.600 MB (on task 3)
  |   Average:       50.143 MB
  | Peak value for overall tracked memory usage:
  |   Minimum:      181.767 MB (on task 0 after allocating aux_mat)
  |   Maximum:      181.767 MB (on task 0 after allocating aux_mat)
  |   Average:      181.767 MB
  | Largest tracked array allocation so far:
  |   Minimum:      178.891 MB (aux_mat on task 0)
  |   Maximum:      178.891 MB (aux_mat on task 0)
  |   Average:      178.891 MB
  Note:  These values currently only include a subset of arrays which are explicitly tracked.
  The "true" memory usage will be greater.
------------------------------------------------------------

------------------------------------------------------------
          Begin self-consistency iteration #    3

  Date     :  20240501, Time     :  140839.180
------------------------------------------------------------
  Pulay mixing of updated and previous charge densities.
  Available memory per node after mixing [GB]:     51.82
  Renormalizing the density to the exact electron count on the 3D integration grid.
  | Formal number of electrons (from input files) :      28.0000000000
  | Integrated number of electrons on 3D grid     :      28.0000000000
  | Charge integration error                      :       0.0000000000
  | Normalization factor for density and gradient :       1.0000000000

  Evaluating partitioned Hartree potential by multipole expansion.
  | Original multipole sum: apparent total charge =   0.104398E-13
  | Sum of charges compensated after spline to logarithmic grids =  -0.923277E-04
  | Analytical far-field extrapolation by fixed multipoles:
  | Hartree multipole sum: apparent total charge =   0.103515E-13
  Summing up the Hartree potential.
  Time summed over all CPUs for potential: real work        0.096 s, elapsed        0.098 s
  | RMS charge density error from multipole expansion :   0.116602E-01
  | Average real-space part of the electrostatic potential :      0.38740400 eV

  Integrating Hamiltonian matrix: batch-based integration.
  Time summed over all CPUs for integration: real work        0.858 s, elapsed        0.869 s
  Calculating non-local Hartree-Fock exchange by two-center RI (RI-LVL).
  screening_threshold (crit_val) =  0.000000100000
  Exact exchange progress report - outermost block loop i_block: 1 ..      50
  |        1         2         3         4         5         6         7         8         9        10
  |       11        12        13        14        15        16        17        18        19        20
  |       21        22        23        24        25        26        27        28        29        30
  |       31        32        33        34        35        36        37        38        39        40
  |       41        42        43        44        45        46        47        48        49        50
 Total ovlp3fn data transfer [GB]  0.34627595357596874
  Average sparsity of tmp1/20.48242188
  Average sparsity of fock_matrix_row0.84842771
  Full exact exchange energy:    1067.415553224489 eV.
  Times            DM_x_o3fn   CM_prod_1   CM_prod_2   tmp2_prod        Sync   Imbalance       Other  Total calc
  | Times    0:        7.917      13.130       2.184       6.023       0.334       2.528       0.280      32.396
  | Times    1:        7.815      14.338       2.436       6.220       0.334       0.982       0.270      32.396
[...]
  | Hartree multipole sum: apparent total charge =   0.309040E-13
  Summing up the Hartree potential.
  Time summed over all CPUs for potential: real work        0.096 s, elapsed        0.098 s
  | RMS charge density error from multipole expansion :   0.115518E-01
  | Average real-space part of the electrostatic potential :      0.29040839 eV

  Integrating Hamiltonian matrix: batch-based integration.
  Time summed over all CPUs for integration: real work        0.859 s, elapsed        0.870 s
  Calculating non-local Hartree-Fock exchange by two-center RI (RI-LVL).
  screening_threshold (crit_val) =  0.000000100000
  Exact exchange progress report - outermost block loop i_block: 1 ..      50
  |        1         2         3         4         5         6         7         8         9        10
  |       11        12        13        14        15        16        17        18        19        20
  |       21        22        23        24        25        26        27        28        29        30
  |       31        32        33        34        35        36        37        38        39        40
  |       41        42        43        44        45        46        47        48        49        50
 Total ovlp3fn data transfer [GB]  0.34627595357596874
  Average sparsity of tmp1/20.48437500
  Average sparsity of fock_matrix_row0.85306638
  Full exact exchange energy:    1066.083903693738 eV.
  Times            DM_x_o3fn   CM_prod_1   CM_prod_2   tmp2_prod        Sync   Imbalance       Other  Total calc
  | Times    0:        8.071      13.552       2.266       6.124       0.340       2.587       0.278      33.217
  | Times    1:        7.971      14.781       2.514       6.314       0.340       1.029       0.268      33.217
  | Times    2:        8.070      13.924       2.251       6.083       0.372       2.221       0.297      33.217
  | Times    3:        7.964      15.597       2.562       6.244       0.371       0.195       0.283      33.217
  | Times  sum:       32.076      57.854       9.593      24.765       1.422       6.033       1.126     132.870

  Decomposition of Other based on code block (only on MPI task 0):
  Times             Block #1    Block #2    Block #3    Block #4    Block #5    Block #6    Block #7    Block #8
  | Times    0:        0.018       0.000       0.003       0.003       0.010       0.001       0.093       0.000

  Times             Block #9   Block #10   Block #11   Block #12   Block #13   Block #14   Block #15   Block #16
  | Times    0:        0.031       0.000       0.090       0.015       0.000       0.017       0.003       0.002

  Times            Block Sum    Expected
  | Times    0:        0.285       0.278
  Time for Fock matrix mixing     0.028

  Updating Kohn-Sham eigenvalues and eigenvectors using ELSI and the (modified) LAPACK eigensolver.
  Starting LAPACK eigensolver
  Finished Cholesky decomposition
  | Time :     0.001 s
  Finished transformation to standard eigenproblem
  | Time :     0.000 s
  Finished solving standard eigenproblem
  | Time :     0.000 s
  Finished back-transformation of eigenvectors
  | Time :     0.000 s

  Obtaining occupation numbers and electronic chemical potential using ELSI.
  | Note that, for insulating systems, the printed 'chemical potential' value is not uniquely defined.
  | It can be anywhere in the energy gap, as long as it correctly separates occupied and unoccupied states.
  | In systems with a gap, the physically relevant chemical potential is the VBM or HOMO.

  | Chemical potential (Fermi level):    -5.08293470 eV
  What follows are estimated values for band gap, HOMO, LUMO, etc.
  | They are estimated on a discrete k-point grid and not necessarily exact.
  | For converged numbers, create a DOS and/or band structure plot on a denser k-grid.

  Highest occupied state (VBM) at     -5.94951617 eV (relative to internal zero)
  | Occupation number:      2.00000000
  | K-point:       1 at    0.000000    0.000000    0.000000 (in units of recip. lattice)

  Lowest unoccupied state (CBM) at    -4.68002426 eV (relative to internal zero)
  | Occupation number:      0.00000000
  | K-point:     149 at    0.375000    0.375000    0.000000 (in units of recip. lattice)

  ESTIMATED overall HOMO-LUMO gap:      1.26949191 eV between HOMO at k-point 1 and LUMO at k-point 149
  | This appears to be an indirect band gap.
  | Smallest direct gap :      3.32704669 eV for k_point 1 at    0.000000    0.000000    0.000000 (in units of recip. lattice)
  The gap value is above 0.2 eV. Unless you are using a very sparse k-point grid,
  this system is most likely an insulator or a semiconductor.

  Total energy components:
  | Sum of eigenvalues            :        -335.46544447 Ha       -9128.47919605 eV
  | XC energy correction          :         -22.27563504 Ha        -606.15087017 eV
  | XC potential correction       :          41.24842383 Ha        1122.42672089 eV
  | Free-atom electrostatic energy:        -263.65639643 Ha       -7174.45557928 eV
  | Hartree energy correction     :          -0.66755532 Ha         -18.16510446 eV
  | Entropy correction            :          -0.00000000 Ha          -0.00000000 eV
  | ---------------------------
  | Total energy                  :        -580.81660744 Ha      -15804.82402907 eV
  | Total energy, T -> 0          :        -580.81660744 Ha      -15804.82402907 eV  <-- do not rely on this value for anything but (periodic) metals
  | Electronic free energy        :        -580.81660744 Ha      -15804.82402907 eV

  Derived energy quantities:
  | Kinetic energy                :         582.50446197 Ha       15850.75288763 eV
  | Electrostatic energy          :       -1121.45650376 Ha      -30516.38412372 eV
  | Energy correction for multipole
  | error in Hartree potential    :           0.01446202 Ha           0.39353155 eV
  | Sum of eigenvalues per atom                           :       -4564.23959803 eV
  | Total energy (T->0) per atom                          :       -7902.41201454 eV  <-- do not rely on this value for anything but (periodic) metals
  | Electronic free energy per atom                       :       -7902.41201454 eV

  Self-consistency convergence accuracy:
  | Change of charge density      :  0.7513E-05
  | Change of unmixed KS density  :  0.1968E-04
  | Change of sum of eigenvalues  :  0.1466E-02 eV
  | Change of total energy        :  0.7119E-05 eV

  Writing Kohn-Sham eigenvalues.
  K-point:       1 at    0.000000    0.000000    0.000000 (in units of recip. lattice)

  State    Occupation    Eigenvalue [Ha]    Eigenvalue [eV]
      1       2.00000         -66.590766        -1812.02695
      2       2.00000         -66.590764        -1812.02689
      3       2.00000          -5.378821         -146.36516
      4       2.00000          -5.378514         -146.35681
      5       2.00000          -3.685141         -100.27779
      6       2.00000          -3.685141         -100.27779
      7       2.00000          -3.685141         -100.27779
      8       2.00000          -3.684563         -100.26206
      9       2.00000          -3.684563         -100.26206
     10       2.00000          -3.684563         -100.26206
     11       2.00000          -0.700428          -19.05961
     12       2.00000          -0.218641           -5.94952
     13       2.00000          -0.218641           -5.94952
     14       2.00000          -0.218641           -5.94952
     15       0.00000          -0.096374           -2.62247
     16       0.00000          -0.096374           -2.62247
     17       0.00000          -0.096374           -2.62247
     18       0.00000          -0.070856           -1.92808
     19       0.00000           0.110474            3.00615
     20       0.00000           0.110474            3.00615

  What follows are estimated values for band gap, HOMO, LUMO, etc.
  | They are estimated on a discrete k-point grid and not necessarily exact.
  | For converged numbers, create a DOS and/or band structure plot on a denser k-grid.

  Highest occupied state (VBM) at     -5.94951617 eV (relative to internal zero)
  | Occupation number:      2.00000000
  | K-point:       1 at    0.000000    0.000000    0.000000 (in units of recip. lattice)

  Lowest unoccupied state (CBM) at    -4.68002426 eV (relative to internal zero)
  | Occupation number:      0.00000000
  | K-point:     149 at    0.375000    0.375000    0.000000 (in units of recip. lattice)

  ESTIMATED overall HOMO-LUMO gap:      1.26949191 eV between HOMO at k-point 1 and LUMO at k-point 149
  | This appears to be an indirect band gap.
  | Smallest direct gap :      3.32704669 eV for k_point 1 at    0.000000    0.000000    0.000000 (in units of recip. lattice)
  The gap value is above 0.2 eV. Unless you are using a very sparse k-point grid,
  this system is most likely an insulator or a semiconductor.

  | Chemical Potential                          :    -5.08293470 eV
  | Note that, for insulating systems, the printed 'chemical potential' value is not uniquely defined.
  | It can be anywhere in the energy gap, as long as it correctly separates occupied and unoccupied states.
  | In systems with a gap, the physically relevant chemical potential is the VBM or HOMO.

  Self-consistency cycle converged.


------------------------------------------------------------
  End self-consistency iteration #    11       :  max(cpu_time)    wall_clock(cpu1)
  | Time for this iteration                     :       33.575 s          33.679 s
  | Charge density update                       :        0.000 s           0.000 s
  | Density mixing                              :        0.002 s           0.001 s
  | Hartree multipole update                    :        0.001 s           0.001 s
  | Hartree multipole summation                 :        0.099 s           0.099 s
  | Integration                                 :        0.218 s           0.219 s
  | Fock matrix evaluation                      :       33.143 s          33.246 s
  | Solution of K.-S. eqns.                     :        0.112 s           0.112 s
  | Total energy evaluation                     :        0.000 s           0.000 s

  Partial memory accounting:
  | Current value for overall tracked memory usage:
  |   Minimum:       49.711 MB (on task 2)
  |   Maximum:       50.602 MB (on task 3)
  |   Average:       50.145 MB
  | Peak value for overall tracked memory usage:
  |   Minimum:      181.767 MB (on task 0 after allocating aux_mat)
  |   Maximum:      181.767 MB (on task 0 after allocating aux_mat)
  |   Average:      181.767 MB
  | Largest tracked array allocation so far:
  |   Minimum:      178.891 MB (aux_mat on task 0)
  |   Maximum:      178.891 MB (aux_mat on task 0)
  |   Average:      178.891 MB
  Note:  These values currently only include a subset of arrays which are explicitly tracked.
  The "true" memory usage will be greater.
------------------------------------------------------------

  Energy and forces in a compact form:
  | Total energy uncorrected      :         -0.158048240290706E+05 eV
  | Total energy corrected        :         -0.158048240290706E+05 eV  <-- do not rely on this value for anything but (periodic) metals
  | Electronic free energy        :         -0.158048240290706E+05 eV

  ------------------------------------ 
  Start decomposition of the XC Energy 
  ------------------------------------ 
  X and C from original XC functional choice 
  Hartree-Fock Energy :         -9.794465839 Ha           -266.520975923 eV
  X Energy            :        -40.772046844 Ha          -1109.463843530 eV
  C Energy            :         -1.092519345 Ha            -29.728963966 eV
  XC Energy w/o HF    :        -32.070100350 Ha           -872.671831573 eV
  Total XC Energy     :        -41.864566189 Ha          -1139.192807497 eV
  ------------------------------------ 
  LDA X and C from self-consistent density 
  X Energy LDA        :        -37.633967681 Ha          -1024.072364828 eV
  C Energy LDA        :         -2.145705007 Ha            -58.387603976 eV
  ------------------------------------ 
  End decomposition of the XC Energy 
  ------------------------------------ 

------------------------------------------------------------

------------------------------------------------------------------------------
  Final output of selected total energy values:

  The following output summarizes some interesting total energy values
  at the end of a run (AFTER all relaxation, molecular dynamics, etc.).

  | Total energy of the DFT / Hartree-Fock s.c.f. calculation      :         -15804.824029071 eV
  | Final zero-broadening corrected energy (caution - metals only) :         -15804.824029071 eV
  | For reference only, the value of 1 Hartree used in FHI-aims is :             27.211384500 eV
  | For reference only, the overall average (free atom contribution
  | + realspace contribution) of the electrostatic potential after
  | s.c.f. convergence is                                          :            -12.510705231 eV

  Before relying on these values, please be sure to understand exactly which
  total energy value is referred to by a given number. Different objects may
  all carry the same name 'total energy'. Definitions:

  Total energy of the DFT / Hartree-Fock s.c.f. calculation:
  | Note that this energy does not include ANY quantities calculated after the
  | s.c.f. cycle, in particular not ANY RPA, MP2, etc. many-body perturbation terms.

  Final zero-broadening corrected energy:
  | For metallic systems only, a broadening of the occupation numbers at the Fermi
  | level can be extrapolated back to zero broadening by an electron-gas inspired
  | formula. For all systems that are not real metals, this value can be
  | meaningless and should be avoided.

------------------------------------------------------------------------------
  Methods described in the following list of references were used in this FHI-aims run.
  If you publish the results, please make sure to cite these reference if they apply.
  FHI-aims is an academic code, and for our developers (often, Ph.D. students
  and postdocs), scientific credit in the community is essential.
  Thank you for helping us!

  For any use of FHI-aims, please cite:

    Volker Blum, Ralf Gehrke, Felix Hanke, Paula Havu, Ville Havu,
    Xinguo Ren, Karsten Reuter, and Matthias Scheffler
    'Ab initio molecular simulations with numeric atom-centered orbitals'
    Computer Physics Communications 180, 2175-2196 (2009)
    http://doi.org/10.1016/j.cpc.2009.06.022


  For Hartree-Fock, hybrid functionals, or many-body perturbation theory used in your run, please cite:

    Xinguo Ren, Patrick Rinke, Volker Blum, Juergen Wieferink, Alex Tkatchenko,
    Andrea Sanfilippo, Karsten Reuter, and Matthias Scheffler,
    'Resolution-of-identity approach to Hartree-Fock, hybrid density functionals,
    RPA, MP2, and GW with numeric atom-centered orbital basis functions'
    New Journal of Physics 14, 053020 (2012).
    http://doi.org/10.1088/1367-2630/14/5/053020


  The provided symmetry information was generated with SPGlib:

    Atsushi Togo, Yusuke Seto, Dimitar Pashov
    SPGlib 1.7.3 obtained from http://spglib.sourceforge.net
    Licence: New BSD license
    Copyright (C) 2008 Atsushi Togo


  The ELSI infrastructure was used in your run to solve the Kohn-Sham electronic structure.
  Please check out http://elsi-interchange.org to learn more.
  If scalability is important for your project, please acknowledge ELSI by citing:

    V. W-z. Yu, F. Corsetti, A. Garcia, W. P. Huhn, M. Jacquelin, W. Jia,
    B. Lange, L. Lin, J. Lu, W. Mi, A. Seifitokaldani, A. Vazquez-Mayagoitia,
    C. Yang, H. Yang, and V. Blum
    'ELSI: A unified software interface for Kohn-Sham electronic structure solvers'
    Computer Physics Communications 222, 267-285 (2018).
    http://doi.org/10.1016/j.cpc.2017.09.007


  For the real-space grid partitioning and parallelization used in this calculation, please cite:

    Ville Havu, Volker Blum, Paula Havu, and Matthias Scheffler,
    'Efficient O(N) integration for all-electron electronic structure calculation'
    'using numerically tabulated basis functions'
    Journal of Computational Physics 228, 8367-8379 (2009).
    http://doi.org/10.1016/j.jcp.2009.08.008


  The high-level electronic structure method used in your calculation
  employed our efficient localized resolution of identity for the Coulomb operator.
  Some calculations, especially large-scale hybrid density functional theory,
  are only possible thanks to this development. For this feature, please cite:

    Arvid Ihrig, Juergen Wieferink, Igor Ying Zhang, Matti Ropo, Xinguo Ren,
    Patrick Rinke, Matthias Scheffler, and Volker Blum,
    'Accurate localized resolution of identity approach for linear-scaling
    hybrid density functionals and for many-body perturbation theory'
    New Journal of Physics 117, 093020 (2015).
    http://doi.org/10.1088/1367-2630/17/9/093020

  Of course, there are many other important community references, e.g., those cited in the
  above references. Our list is limited to references that describe implementations in the
  FHI-aims code. The reason is purely practical (length of this list) - please credit others as well.

------------------------------------------------------------
          Leaving FHI-aims.
          Date     :  20240501, Time     :  141344.302

          Computational steps:
          | Number of self-consistency cycles          :           11
          | Number of SCF (re)initializations          :            1

          Detailed time accounting                     :  max(cpu_time)    wall_clock(cpu1)
          | Total time                                  :      398.011 s         399.315 s
          | Preparation time                            :        0.168 s           0.168 s
          | Boundary condition initalization            :        0.104 s           0.105 s
          | Grid partitioning                           :        0.045 s           0.045 s
          | Preloading free-atom quantities on grid     :        0.118 s           0.118 s
          | Free-atom superposition energy              :        0.041 s           0.041 s
          | Total time for integrations                 :        2.765 s           2.776 s
          | Product basis setup: Total time             :       24.645 s          24.704 s
          | Total time evaluating exchange matrix       :      363.800 s         364.995 s
          | Total time for solution of K.-S. equations  :        1.353 s           1.357 s
          | Total time for density update               :        3.859 s           3.869 s
          | Total time for mixing                       :        0.012 s           0.009 s
          | Total time for Hartree multipole update     :        0.011 s           0.011 s
          | Total time for Hartree multipole sum        :        1.060 s           1.062 s
          | Total time for total energy evaluation      :        0.002 s           0.004 s
          | Total time for scaled ZORA corrections      :        0.000 s           0.000 s

          Partial memory accounting:
          | Residual value for overall tracked memory usage across tasks:     0.000000 MB (should be 0.000000 MB)
          | Peak values for overall tracked memory usage:
          |   Minimum:      181.767 MB (on task 0 after allocating aux_mat)
          |   Maximum:      181.767 MB (on task 0 after allocating aux_mat)
          |   Average:      181.767 MB
          | Largest tracked array allocation:
          |   Minimum:      178.891 MB (aux_mat on task 0)
          |   Maximum:      178.891 MB (aux_mat on task 0)
          |   Average:      178.891 MB
          Note:  These values currently only include a subset of arrays which are explicitly tracked.
          The "true" memory usage will be greater.

          Have a nice day.
------------------------------------------------------------
