<?xml version="1.0" encoding="UTF-8"?>

<!-- generated on 2025-11-13T06:15:37.954238+01:00 by Eclipse SUMO sumo 1.25.0
<sumoConfiguration xmlns:xsi="http://www.w3.org/2001/XMLSchema-instance" xsi:noNamespaceSchemaLocation="http://sumo.dlr.de/xsd/sumoConfiguration.xsd">

    <input>
        <net-file value="C:\Users\delphi\testreports\sumoExtra\git\tools\game\A10KW/osm.net.xml"/>
        <route-files value="C:\Users\delphi\testreports\sumoExtra\git\tools\game\A10KW/osm.passenger.rou.xml,C:\Users\delphi\testreports\sumoExtra\git\tools\game\A10KW/osm.truck.rou.xml,C:\Users\delphi\testreports\sumoExtra\git\tools\game\A10KW/osm.passenger_mw.rou.xml,C:\Users\delphi\testreports\sumoExtra\git\tools\game\A10KW/osm.truck_mw.rou.xml,C:\Users\delphi\testreports\sumoExtra\git\tools\game\A10KW/osm.passenger_mwb.rou.xml,C:\Users\delphi\testreports\sumoExtra\git\tools\game\A10KW/osm.truck_mwb.rou.xml,C:\Users\delphi\testreports\sumoExtra\git\tools\game\A10KW/extra.rou.xml"/>
        <additional-files value="C:\Users\delphi\testreports\sumoExtra\git\tools\game\input_additional.add.xml,C:\Users\delphi\testreports\sumoExtra\git\tools\game\A10KW/osm.poly.xml"/>
    </input>

    <output>
        <output-prefix value="output\A10KW."/>
        <tripinfo-output.write-unfinished value="true"/>
        <statistic-output value="stats.xml"/>
    </output>

    <time>
        <end value="1800"/>
        <step-length value="0.5"/>
    </time>

    <processing>
        <ignore-route-errors value="true"/>
        <time-to-teleport value="0"/>
    </processing>

    <routing>
        <device.rerouting.adaptation-steps value="180"/>
    </routing>

    <report>
        <verbose value="false"/>
        <xml-validation value="never"/>
        <no-warnings value="true"/>
        <log value="log"/>
        <duration-log.statistics value="true"/>
        <no-step-log value="true"/>
    </report>

    <gui_only>
        <gui-settings-file value="C:\Users\delphi\testreports\sumoExtra\git\tools\game\A10KW/osm.view.xml"/>
    </gui_only>

</sumoConfiguration>
-->

<meandata xmlns:xsi="http://www.w3.org/2001/XMLSchema-instance" xsi:noNamespaceSchemaLocation="http://sumo.dlr.de/xsd/meandata_file.xsd">
    <interval begin="0.00" end="1800.00" id="dump">
        <edge id="-24498410#1" sampledSeconds="357.58" traveltime="4.55" overlapTraveltime="4.82" density="2.17" overlapDensity="2.30" laneDensity="2.17" occupancy="1.12" waitingTime="0.00" timeLoss="13.57" speed="18.94" speedRelative="0.97" departed="0" arrived="0" entered="75" left="74" laneChangedFrom="0" laneChangedTo="0" flow="148.23"/>
        <edge id="-256366919" sampledSeconds="29596.79" traveltime="1017.21" overlapTraveltime="1028.80" density="110.22" overlapDensity="110.24" laneDensity="110.22" occupancy="56.36" waitingTime="29226.00" timeLoss="29365.44" speed="0.15" speedRelative="0.01" departed="0" arrived="0" entered="38" left="19" laneChangedFrom="0" laneChangedTo="0" flow="59.50"/>
        <edge id="-256366931#0" sampledSeconds="1305.51" traveltime="0.70" overlapTraveltime="94.10" density="0.85" overlapDensity="98.14" laneDensity="0.85" occupancy="57.46" waitingTime="1284.50" timeLoss="1290.68" speed="0.15" speedRelative="0.01" departed="0" arrived="0" entered="16" left="16" laneChangedFrom="0" laneChangedTo="0" flow="0.47"/>
        <edge id="-256366931#1" sampledSeconds="5902.21" traveltime="308.26" overlapTraveltime="313.51" density="72.96" overlapDensity="73.05" laneDensity="72.96" occupancy="39.43" waitingTime="5811.00" timeLoss="5832.72" speed="0.16" speedRelative="0.01" departed="0" arrived="0" entered="21" left="16" laneChangedFrom="0" laneChangedTo="0" flow="42.14"/>
        <edge id="-256366931#3" sampledSeconds="6688.39" traveltime="265.37" overlapTraveltime="268.67" density="62.22" overlapDensity="62.30" laneDensity="62.22" occupancy="32.98" waitingTime="6536.00" timeLoss="6570.24" speed="0.24" speedRelative="0.02" departed="0" arrived="0" entered="28" left="21" laneChangedFrom="0" laneChangedTo="0" flow="54.14"/>
        <edge id="-8008670#1" sampledSeconds="52.49" traveltime="52.23" overlapTraveltime="52.65" density="0.05" overlapDensity="0.05" laneDensity="0.05" occupancy="0.02" waitingTime="0.00" timeLoss="2.14" speed="12.08" speedRelative="0.87" departed="0" arrived="1" entered="1" left="0" laneChangedFrom="0" laneChangedTo="0" flow="2.00"/>
        <edge id="151495015" sampledSeconds="35.35" traveltime="11.40" overlapTraveltime="11.78" density="0.13" overlapDensity="0.13" laneDensity="0.06" occupancy="0.03" waitingTime="0.00" timeLoss="1.47" speed="13.20" speedRelative="0.95" departed="0" arrived="0" entered="3" left="3" laneChangedFrom="0" laneChangedTo="0" flow="6.00"/>
        <edge id="151495016#0" sampledSeconds="8613.79" traveltime="48.73" overlapTraveltime="48.96" density="63.78" overlapDensity="64.14" laneDensity="21.26" occupancy="10.67" waitingTime="7827.50" timeLoss="7896.81" speed="1.63" speedRelative="0.08" departed="0" arrived="0" entered="178" left="171" laneChangedFrom="3" laneChangedTo="3" flow="373.49"/>
        <edge id="151495018" sampledSeconds="12287.64" traveltime="312.52" overlapTraveltime="360.81" density="114.23" overlapDensity="131.15" laneDensity="114.23" occupancy="56.71" waitingTime="12103.50" timeLoss="12151.34" speed="0.16" speedRelative="0.01" departed="0" arrived="0" entered="38" left="31" laneChangedFrom="0" laneChangedTo="0" flow="65.03"/>
        <edge id="151495020" sampledSeconds="274.04" traveltime="3.19" overlapTraveltime="3.47" density="2.35" overlapDensity="2.56" laneDensity="2.35" occupancy="1.26" waitingTime="0.00" timeLoss="14.00" speed="18.67" speedRelative="0.96" departed="0" arrived="0" entered="79" left="79" laneChangedFrom="0" laneChangedTo="0" flow="158.15"/>
        <edge id="151495034" sampledSeconds="39398.68" traveltime="754.17" overlapTraveltime="759.54" density="102.00" overlapDensity="102.04" laneDensity="102.00" occupancy="53.18" waitingTime="38399.50" timeLoss="38585.08" speed="0.29" speedRelative="0.02" departed="0" arrived="0" entered="66" left="38" laneChangedFrom="0" laneChangedTo="0" flow="106.23"/>
        <edge id="151495035#0" sampledSeconds="4265.91" traveltime="1559.98" overlapTraveltime="929.00" density="33.24" overlapDensity="33.33" laneDensity="16.62" occupancy="8.87" waitingTime="4213.50" timeLoss="4239.16" speed="0.08" speedRelative="0.01" departed="37" arrived="0" entered="0" left="31" laneChangedFrom="0" laneChangedTo="0" flow="9.84"/>
        <edge id="151495035#1" sampledSeconds="3642.58" traveltime="122.96" overlapTraveltime="124.51" density="60.40" overlapDensity="60.59" laneDensity="30.20" occupancy="15.10" waitingTime="3540.00" timeLoss="3558.20" speed="0.31" speedRelative="0.02" departed="0" arrived="0" entered="31" left="27" laneChangedFrom="0" laneChangedTo="0" flow="67.07"/>
        <edge id="151495035#2" sampledSeconds="10115.13" traveltime="384.46" overlapTraveltime="444.98" density="73.68" overlapDensity="84.12" laneDensity="36.84" occupancy="20.64" waitingTime="9925.50" timeLoss="9993.00" speed="0.16" speedRelative="0.01" departed="0" arrived="0" entered="27" left="19" laneChangedFrom="0" laneChangedTo="0" flow="42.80"/>
        <edge id="151495040" sampledSeconds="15527.62" traveltime="6.83" overlapTraveltime="7.07" density="57.43" overlapDensity="59.49" laneDensity="19.14" occupancy="10.37" waitingTime="0.00" timeLoss="3495.59" speed="21.27" speedRelative="0.77" departed="6" arrived="3" entered="2197" left="2194" laneChangedFrom="92" laneChangedTo="92" flow="4398.67"/>
        <edge id="164719876" sampledSeconds="1106.49" traveltime="5.91" overlapTraveltime="6.18" density="5.23" overlapDensity="5.47" laneDensity="5.23" occupancy="2.73" waitingTime="0.00" timeLoss="30.29" speed="19.01" speedRelative="0.98" departed="0" arrived="0" entered="179" left="179" laneChangedFrom="0" laneChangedTo="0" flow="357.94"/>
        <edge id="164719877" sampledSeconds="1406.30" traveltime="7.58" overlapTraveltime="7.86" density="5.28" overlapDensity="5.48" laneDensity="5.28" occupancy="2.76" waitingTime="0.00" timeLoss="52.42" speed="18.82" speedRelative="0.97" departed="0" arrived="0" entered="179" left="179" laneChangedFrom="0" laneChangedTo="0" flow="357.93"/>
        <edge id="164719879" sampledSeconds="84.02" traveltime="20.94" overlapTraveltime="22.80" density="0.04" overlapDensity="0.10" laneDensity="0.04" occupancy="0.04" waitingTime="0.00" timeLoss="2.77" speed="20.14" speedRelative="0.91" departed="179" arrived="0" entered="0" left="179" laneChangedFrom="0" laneChangedTo="0" flow="3.10"/>
        <edge id="222448597#0" sampledSeconds="50257.01" traveltime="2963.27" overlapTraveltime="3141.91" density="318.40" overlapDensity="318.40" laneDensity="106.13" occupancy="55.82" waitingTime="50022.50" timeLoss="50180.38" speed="0.03" speedRelative="0.00" departed="0" arrived="0" entered="30" left="0" laneChangedFrom="4" laneChangedTo="4" flow="33.92"/>
        <edge id="225981818#1" sampledSeconds="7.13" traveltime="6.70" overlapTraveltime="7.13" density="0.05" overlapDensity="0.05" laneDensity="0.05" occupancy="0.02" waitingTime="0.00" timeLoss="0.25" speed="12.15" speedRelative="0.87" departed="0" arrived="0" entered="1" left="1" laneChangedFrom="0" laneChangedTo="0" flow="1.99"/>
        <edge id="225981818#2" sampledSeconds="4.09" traveltime="3.67" overlapTraveltime="4.09" density="0.05" overlapDensity="0.05" laneDensity="0.05" occupancy="0.02" waitingTime="0.00" timeLoss="0.19" speed="12.00" speedRelative="0.86" departed="0" arrived="0" entered="1" left="1" laneChangedFrom="0" laneChangedTo="0" flow="2.00"/>
        <edge id="225981818#3" sampledSeconds="5.66" traveltime="5.25" overlapTraveltime="5.66" density="0.05" overlapDensity="0.05" laneDensity="0.05" occupancy="0.02" waitingTime="0.00" timeLoss="0.26" speed="12.01" speedRelative="0.86" departed="0" arrived="0" entered="1" left="1" laneChangedFrom="0" laneChangedTo="0" flow="2.00"/>
        <edge id="240042192#0" sampledSeconds="19947.55" traveltime="1822.32" overlapTraveltime="1877.88" density="86.45" overlapDensity="86.46" laneDensity="28.82" occupancy="15.31" waitingTime="19805.50" timeLoss="19875.13" speed="0.07" speedRelative="0.00" departed="0" arrived="0" entered="15" left="3" laneChangedFrom="0" laneChangedTo="0" flow="22.12"/>
        <edge id="240042194#0" sampledSeconds="40171.35" traveltime="3214.65" overlapTraveltime="3398.76" density="251.07" overlapDensity="251.07" laneDensity="83.69" occupancy="41.98" waitingTime="39977.50" timeLoss="40090.81" speed="0.03" speedRelative="0.00" departed="0" arrived="0" entered="24" left="0" laneChangedFrom="0" laneChangedTo="0" flow="24.99"/>
        <edge id="240042212" sampledSeconds="100741.02" traveltime="44.19" overlapTraveltime="44.46" density="208.84" overlapDensity="210.14" laneDensity="52.21" occupancy="27.61" waitingTime="64170.05" timeLoss="78316.79" speed="6.11" speedRelative="0.22" departed="7" arrived="4" entered="2285" left="2235" laneChangedFrom="247" laneChangedTo="247" flow="4593.31"/>
        <edge id="24498409" sampledSeconds="639.58" traveltime="8.43" overlapTraveltime="8.67" density="1.92" overlapDensity="1.97" laneDensity="1.92" occupancy="0.98" waitingTime="0.00" timeLoss="37.77" speed="21.39" speedRelative="0.96" departed="0" arrived="0" entered="74" left="73" laneChangedFrom="0" laneChangedTo="0" flow="147.84"/>
        <edge id="24498410#0" sampledSeconds="32270.36" traveltime="2820.45" overlapTraveltime="2987.46" density="203.22" overlapDensity="203.22" laneDensity="101.61" occupancy="53.07" waitingTime="32119.00" timeLoss="32216.53" speed="0.03" speedRelative="0.00" departed="0" arrived="0" entered="19" left="0" laneChangedFrom="0" laneChangedTo="0" flow="22.88"/>
        <edge id="253109038" sampledSeconds="19.89" traveltime="5.97" overlapTraveltime="6.63" density="0.15" overlapDensity="0.16" laneDensity="0.07" occupancy="0.04" waitingTime="0.00" timeLoss="3.99" speed="11.01" speedRelative="0.79" departed="0" arrived="0" entered="3" left="3" laneChangedFrom="0" laneChangedTo="0" flow="5.80"/>
        <edge id="253109039" sampledSeconds="2955.37" traveltime="23.42" overlapTraveltime="46.90" density="133.33" overlapDensity="133.33" laneDensity="133.33" occupancy="43.67" waitingTime="2886.50" timeLoss="2908.72" speed="0.22" speedRelative="0.02" departed="0" arrived="0" entered="64" left="63" laneChangedFrom="0" laneChangedTo="0" flow="104.59"/>
        <edge id="253109040" sampledSeconds="2.61" traveltime="0.18" overlapTraveltime="0.65" density="0.22" overlapDensity="0.78" laneDensity="0.11" occupancy="0.05" waitingTime="0.00" timeLoss="0.68" speed="10.51" speedRelative="0.76" departed="0" arrived="0" entered="4" left="4" laneChangedFrom="0" laneChangedTo="0" flow="8.32"/>
        <edge id="253109041" sampledSeconds="1300.60" traveltime="0.27" overlapTraveltime="76.04" density="1.11" overlapDensity="266.67" laneDensity="0.56" occupancy="20.54" waitingTime="1283.50" timeLoss="1291.27" speed="0.10" speedRelative="0.01" departed="0" arrived="0" entered="17" left="17" laneChangedFrom="0" laneChangedTo="0" flow="0.39"/>
        <edge id="253109042" sampledSeconds="1545.09" traveltime="23.22" overlapTraveltime="23.87" density="107.24" overlapDensity="109.91" laneDensity="53.62" occupancy="26.78" waitingTime="1443.00" timeLoss="1485.14" speed="0.54" speedRelative="0.04" departed="0" arrived="0" entered="65" left="64" laneChangedFrom="51" laneChangedTo="51" flow="207.17"/>
        <edge id="253109043" sampledSeconds="4403.56" traveltime="23.97" overlapTraveltime="77.31" density="232.44" overlapDensity="266.67" laneDensity="116.22" occupancy="37.01" waitingTime="4352.00" timeLoss="4368.27" speed="0.11" speedRelative="0.01" departed="0" arrived="0" entered="62" left="61" laneChangedFrom="10" laneChangedTo="10" flow="92.12"/>
        <edge id="253109044" sampledSeconds="1.69" traveltime="1.29" overlapTraveltime="1.69" density="0.05" overlapDensity="0.07" laneDensity="0.05" occupancy="0.02" waitingTime="0.00" timeLoss="0.47" speed="11.41" speedRelative="0.82" departed="0" arrived="0" entered="1" left="1" laneChangedFrom="0" laneChangedTo="0" flow="2.06"/>
        <edge id="253109045" sampledSeconds="4052.49" traveltime="176.68" overlapTraveltime="271.63" density="85.00" overlapDensity="128.80" laneDensity="85.00" occupancy="48.12" waitingTime="4008.50" timeLoss="4027.49" speed="0.08" speedRelative="0.01" departed="0" arrived="0" entered="16" left="14" laneChangedFrom="0" laneChangedTo="0" flow="25.33"/>
        <edge id="256366918" sampledSeconds="595.37" traveltime="7.78" overlapTraveltime="8.05" density="2.17" overlapDensity="2.25" laneDensity="2.17" occupancy="1.12" waitingTime="0.00" timeLoss="27.21" speed="18.95" speedRelative="0.97" departed="0" arrived="0" entered="74" left="74" laneChangedFrom="0" laneChangedTo="0" flow="148.05"/>
        <edge id="256366921#0" sampledSeconds="396.58" traveltime="4.04" overlapTraveltime="4.31" density="2.69" overlapDensity="2.87" laneDensity="0.90" occupancy="0.46" waitingTime="0.00" timeLoss="14.55" speed="19.00" speedRelative="0.98" departed="0" arrived="0" entered="92" left="92" laneChangedFrom="0" laneChangedTo="0" flow="184.04"/>
        <edge id="256366923#0" sampledSeconds="18614.83" traveltime="467.83" overlapTraveltime="473.83" density="204.92" overlapDensity="205.03" laneDensity="68.31" occupancy="33.81" waitingTime="18428.50" timeLoss="18503.78" speed="0.12" speedRelative="0.01" departed="0" arrived="0" entered="46" left="34" laneChangedFrom="0" laneChangedTo="0" flow="86.32"/>
        <edge id="256366925" sampledSeconds="192.22" traveltime="14.42" overlapTraveltime="14.70" density="0.38" overlapDensity="0.39" laneDensity="0.19" occupancy="0.10" waitingTime="0.00" timeLoss="8.13" speed="19.00" speedRelative="0.98" departed="2" arrived="0" entered="13" left="15" laneChangedFrom="0" laneChangedTo="0" flow="26.06"/>
        <edge id="256366926#0" sampledSeconds="1690.07" traveltime="42.03" overlapTraveltime="42.16" density="115.28" overlapDensity="116.20" laneDensity="57.64" occupancy="28.82" waitingTime="1653.50" timeLoss="1663.26" speed="0.31" speedRelative="0.02" departed="1" arrived="0" entered="40" left="40" laneChangedFrom="2" laneChangedTo="2" flow="128.77"/>
        <edge id="256366926#1" sampledSeconds="27405.78" traveltime="838.26" overlapTraveltime="846.78" density="121.65" overlapDensity="121.70" laneDensity="60.83" occupancy="30.41" waitingTime="27067.00" timeLoss="27190.90" speed="0.15" speedRelative="0.01" departed="0" arrived="0" entered="40" left="24" laneChangedFrom="1" laneChangedTo="1" flow="67.29"/>
        <edge id="256366927" sampledSeconds="501.22" traveltime="31.14" overlapTraveltime="31.39" density="0.45" overlapDensity="0.45" laneDensity="0.23" occupancy="0.12" waitingTime="0.00" timeLoss="12.56" speed="19.72" speedRelative="1.01" departed="0" arrived="16" entered="16" left="0" laneChangedFrom="1" laneChangedTo="1" flow="32.01"/>
        <edge id="256366928#0" sampledSeconds="19404.13" traveltime="1043.52" overlapTraveltime="1061.46" density="137.63" overlapDensity="137.66" laneDensity="45.88" occupancy="21.83" waitingTime="19260.00" timeLoss="19327.23" speed="0.08" speedRelative="0.00" departed="0" arrived="0" entered="24" left="13" laneChangedFrom="0" laneChangedTo="0" flow="38.89"/>
        <edge id="256366930" sampledSeconds="13691.48" traveltime="1274.41" overlapTraveltime="1325.38" density="106.41" overlapDensity="106.47" laneDensity="53.20" occupancy="30.42" waitingTime="13578.50" timeLoss="13633.66" speed="0.06" speedRelative="0.00" departed="0" arrived="0" entered="15" left="6" laneChangedFrom="0" laneChangedTo="0" flow="22.30"/>
        <edge id="26216780#0" sampledSeconds="45281.13" traveltime="9832.93" overlapTraveltime="8523.18" density="84.57" overlapDensity="87.35" laneDensity="84.57" occupancy="42.96" waitingTime="45003.00" timeLoss="45171.80" speed="0.03" speedRelative="0.00" departed="89" arrived="0" entered="0" left="55" laneChangedFrom="0" laneChangedTo="0" flow="10.47"/>
        <edge id="26216780#1" sampledSeconds="2923.91" traveltime="53.51" overlapTraveltime="54.38" density="133.33" overlapDensity="133.33" laneDensity="133.33" occupancy="54.79" waitingTime="2841.00" timeLoss="2862.86" speed="0.29" speedRelative="0.02" departed="0" arrived="0" entered="55" left="53" laneChangedFrom="0" laneChangedTo="0" flow="139.90"/>
        <edge id="264306385" sampledSeconds="259409.51" traveltime="189.84" overlapTraveltime="189.96" density="119.98" overlapDensity="120.36" laneDensity="39.99" occupancy="21.44" waitingTime="90232.50" timeLoss="199798.29" speed="6.33" speedRelative="0.23" departed="2435" arrived="0" entered="0" left="2126" laneChangedFrom="473" laneChangedTo="473" flow="2734.78"/>
        <edge id="264308373" sampledSeconds="97501.81" traveltime="43.59" overlapTraveltime="43.80" density="51.96" overlapDensity="52.15" laneDensity="17.32" occupancy="9.38" waitingTime="0.00" timeLoss="12851.90" speed="23.84" speedRelative="0.86" departed="0" arrived="2203" entered="2252" left="0" laneChangedFrom="688" laneChangedTo="688" flow="4459.25"/>
        <edge id="264308374" sampledSeconds="17866.31" traveltime="7.64" overlapTraveltime="7.87" density="55.61" overlapDensity="57.31" laneDensity="13.90" occupancy="7.53" waitingTime="0.00" timeLoss="3107.45" speed="22.68" speedRelative="0.82" departed="1" arrived="0" entered="2271" left="2265" laneChangedFrom="300" laneChangedTo="300" flow="4540.40"/>
        <edge id="264308375" sampledSeconds="52397.33" traveltime="24.10" overlapTraveltime="24.95" density="200.85" overlapDensity="208.09" laneDensity="50.21" occupancy="26.60" waitingTime="36553.00" timeLoss="41325.83" speed="5.82" speedRelative="0.21" departed="4" arrived="4" entered="2125" left="2071" laneChangedFrom="89" laneChangedTo="89" flow="4205.10"/>
        <edge id="264308376" sampledSeconds="85469.18" traveltime="41.31" overlapTraveltime="41.52" density="47.53" overlapDensity="47.71" laneDensity="15.84" occupancy="8.55" waitingTime="0.00" timeLoss="10792.46" speed="24.10" speedRelative="0.87" departed="0" arrived="2050" entered="2075" left="0" laneChangedFrom="681" laneChangedTo="681" flow="4122.95"/>
        <edge id="264308383" sampledSeconds="20497.62" traveltime="10.01" overlapTraveltime="10.24" density="49.23" overlapDensity="50.38" laneDensity="16.41" occupancy="8.88" waitingTime="0.00" timeLoss="3679.87" speed="22.60" speedRelative="0.81" departed="4" arrived="2" entered="2003" left="1999" laneChangedFrom="147" laneChangedTo="147" flow="4004.93"/>
        <edge id="290296351" sampledSeconds="171842.30" traveltime="134.32" overlapTraveltime="134.22" density="99.12" overlapDensity="99.49" laneDensity="33.04" occupancy="17.65" waitingTime="70156.00" timeLoss="126974.63" speed="7.19" speedRelative="0.26" departed="2445" arrived="0" entered="0" left="2285" laneChangedFrom="363" laneChangedTo="363" flow="2565.29"/>
        <edge id="308396219" sampledSeconds="1555.10" traveltime="16.63" overlapTraveltime="16.90" density="2.69" overlapDensity="2.73" laneDensity="1.35" occupancy="0.69" waitingTime="0.00" timeLoss="57.14" speed="19.00" speedRelative="0.98" departed="0" arrived="0" entered="92" left="92" laneChangedFrom="1" laneChangedTo="1" flow="184.01"/>
        <edge id="308396220" sampledSeconds="400.50" traveltime="4.89" overlapTraveltime="5.14" density="2.08" overlapDensity="2.18" laneDensity="2.08" occupancy="1.11" waitingTime="0.00" timeLoss="27.71" speed="20.86" speedRelative="0.94" departed="0" arrived="0" entered="79" left="78" laneChangedFrom="0" laneChangedTo="0" flow="156.59"/>
        <edge id="360414561" sampledSeconds="96757.13" traveltime="7292.95" overlapTraveltime="7349.06" density="92.31" overlapDensity="95.16" laneDensity="46.16" occupancy="24.12" waitingTime="95368.50" timeLoss="96373.72" speed="0.08" speedRelative="0.00" departed="112" arrived="0" entered="0" left="48" laneChangedFrom="6" laneChangedTo="6" flow="25.77"/>
        <edge id="38234312" sampledSeconds="196.79" traveltime="11.31" overlapTraveltime="11.58" density="0.48" overlapDensity="0.50" laneDensity="0.24" occupancy="0.12" waitingTime="0.00" timeLoss="5.24" speed="19.50" speedRelative="1.00" departed="0" arrived="0" entered="17" left="17" laneChangedFrom="2" laneChangedTo="2" flow="33.98"/>
        <edge id="399250313" sampledSeconds="16905.02" traveltime="7.25" overlapTraveltime="7.48" density="54.21" overlapDensity="55.94" laneDensity="18.07" occupancy="9.79" waitingTime="0.00" timeLoss="2634.09" speed="23.18" speedRelative="0.83" departed="0" arrived="5" entered="2265" left="2252" laneChangedFrom="222" laneChangedTo="222" flow="4522.57"/>
        <edge id="403940535" sampledSeconds="641.55" traveltime="3.31" overlapTraveltime="3.59" density="5.33" overlapDensity="5.78" laneDensity="5.33" occupancy="2.78" waitingTime="0.00" timeLoss="29.63" speed="18.64" speedRelative="0.96" departed="0" arrived="0" entered="179" left="178" laneChangedFrom="0" laneChangedTo="0" flow="357.49"/>
        <edge id="4054057" sampledSeconds="17722.52" traveltime="8.33" overlapTraveltime="8.57" density="49.00" overlapDensity="50.39" laneDensity="12.25" occupancy="6.62" waitingTime="20.00" timeLoss="2650.33" speed="23.44" speedRelative="0.84" departed="8" arrived="0" entered="2072" left="2075" laneChangedFrom="353" laneChangedTo="353" flow="4135.06"/>
        <edge id="4935288" sampledSeconds="53963.23" traveltime="1254.95" overlapTraveltime="1312.83" density="232.81" overlapDensity="239.72" laneDensity="116.41" occupancy="59.22" waitingTime="53394.50" timeLoss="53572.31" speed="0.10" speedRelative="0.01" departed="0" arrived="0" entered="58" left="25" laneChangedFrom="11" laneChangedTo="11" flow="83.03"/>
        <edge id="4935300#0" sampledSeconds="29.35" traveltime="6.97" overlapTraveltime="7.34" density="0.17" overlapDensity="0.17" laneDensity="0.08" occupancy="0.04" waitingTime="0.00" timeLoss="1.63" speed="13.44" speedRelative="0.97" departed="0" arrived="0" entered="4" left="4" laneChangedFrom="0" laneChangedTo="0" flow="8.00"/>
        <edge id="4935300#2" sampledSeconds="21.89" traveltime="5.19" overlapTraveltime="5.55" density="0.16" overlapDensity="0.17" laneDensity="0.08" occupancy="0.04" waitingTime="0.00" timeLoss="0.83" speed="13.68" speedRelative="0.99" departed="0" arrived="4" entered="4" left="0" laneChangedFrom="0" laneChangedTo="0" flow="8.00"/>
        <edge id="8008670#0" sampledSeconds="7295.72" traveltime="7822.47" overlapTraveltime="6264.60" density="6.44" overlapDensity="6.45" laneDensity="6.44" occupancy="3.22" waitingTime="7164.50" timeLoss="7243.45" speed="0.10" speedRelative="0.01" departed="45" arrived="0" entered="0" left="28" laneChangedFrom="0" laneChangedTo="0" flow="2.34"/>
    </interval>
    <interval begin="0.00" end="1800.00" id="hbefa">
        <edge id="-24498410#1" sampledSeconds="337.48" CO_abs="11295.21" CO2_abs="1166715.02" HC_abs="78.92" PMx_abs="173.19" NOx_abs="475.93" fuel_abs="377750.36" electricity_abs="0.00"
            CO_normed="261.92" CO2_normed="27054.26" HC_normed="1.83" PMx_normed="4.02" NOx_normed="11.04" fuel_normed="8759.43" electricity_normed="0.00"
            traveltime="4.55" CO_perVeh="152.39" CO2_perVeh="15740.60" HC_perVeh="1.06" PMx_perVeh="2.34" NOx_perVeh="6.42" fuel_perVeh="5096.37" electricity_perVeh="0.00"/>
        <edge id="-256366919" sampledSeconds="29590.30" CO_abs="12411.97" CO2_abs="46423585.46" HC_abs="211.67" PMx_abs="2471.25" NOx_abs="17606.49" fuel_abs="15040747.59" electricity_abs="0.00"
            CO_normed="166.44" CO2_normed="622508.69" HC_normed="2.84" PMx_normed="33.14" NOx_normed="236.09" fuel_normed="201686.19" electricity_normed="0.00"
            traveltime="1017.21" CO_perVeh="426.68" CO2_perVeh="1595886.04" HC_perVeh="7.28" PMx_perVeh="84.95" NOx_perVeh="605.25" fuel_perVeh="517050.09" electricity_perVeh="0.00"/>
        <edge id="-256366931#0" sampledSeconds="11.25" CO_abs="65.80" CO2_abs="21962.03" HC_abs="0.67" PMx_abs="3.81" NOx_abs="9.32" fuel_abs="7084.83" electricity_abs="0.00"
            CO_normed="17.81" CO2_normed="5943.72" HC_normed="0.18" PMx_normed="1.03" NOx_normed="2.52" fuel_normed="1917.41" electricity_normed="0.00"
            traveltime="0.70" CO_perVeh="4.11" CO2_perVeh="1372.63" HC_perVeh="0.04" PMx_perVeh="0.24" NOx_perVeh="0.58" fuel_perVeh="442.80" electricity_perVeh="0.00"/>
        <edge id="-256366931#1" sampledSeconds="5895.12" CO_abs="1798.07" CO2_abs="9470207.92" HC_abs="101.73" PMx_abs="1687.75" NOx_abs="3073.58" fuel_abs="3063813.62" electricity_abs="0.00"
            CO_normed="80.11" CO2_normed="421929.51" HC_normed="4.53" PMx_normed="75.20" NOx_normed="136.94" fuel_normed="136503.17" electricity_normed="0.00"
            traveltime="308.26" CO_perVeh="94.02" CO2_perVeh="495207.61" HC_perVeh="5.32" PMx_perVeh="88.25" NOx_perVeh="160.72" fuel_perVeh="160210.19" electricity_perVeh="0.00"/>
        <edge id="-256366931#3" sampledSeconds="6679.52" CO_abs="2323.87" CO2_abs="10635297.20" HC_abs="91.41" PMx_abs="1434.47" NOx_abs="3665.18" fuel_abs="3442441.28" electricity_abs="0.00"
            CO_normed="77.93" CO2_normed="356649.81" HC_normed="3.07" PMx_normed="48.10" NOx_normed="122.91" fuel_normed="115440.69" electricity_normed="0.00"
            traveltime="265.37" CO_perVeh="92.32" CO2_perVeh="422523.91" HC_perVeh="3.63" PMx_perVeh="56.99" NOx_perVeh="145.61" fuel_perVeh="136762.87" electricity_perVeh="0.00"/>
        <edge id="-8008670#1" sampledSeconds="52.23" CO_abs="676.69" CO2_abs="109714.87" HC_abs="4.51" PMx_abs="11.36" NOx_abs="38.64" fuel_abs="35568.14" electricity_abs="0.00"
            CO_normed="2.15" CO2_normed="347.83" HC_normed="0.01" PMx_normed="0.04" NOx_normed="0.12" fuel_normed="112.76" electricity_normed="0.00"
            traveltime="52.23" CO_perVeh="676.69" CO2_perVeh="109714.87" HC_perVeh="4.51" PMx_perVeh="11.36" NOx_perVeh="38.64" fuel_perVeh="35568.14" electricity_perVeh="0.00"/>
        <edge id="151495015" sampledSeconds="34.21" CO_abs="496.68" CO2_abs="72757.20" HC_abs="3.32" PMx_abs="8.32" NOx_abs="26.21" fuel_abs="23586.95" electricity_abs="0.00"
            CO_normed="6.60" CO2_normed="966.49" HC_normed="0.04" PMx_normed="0.11" NOx_normed="0.35" fuel_normed="313.32" electricity_normed="0.00"
            traveltime="11.40" CO_perVeh="165.56" CO2_perVeh="24252.40" HC_perVeh="1.11" PMx_perVeh="2.77" NOx_perVeh="8.74" fuel_perVeh="7862.32" electricity_perVeh="0.00"/>
        <edge id="151495016#0" sampledSeconds="8565.89" CO_abs="22878.00" CO2_abs="14518685.03" HC_abs="163.60" PMx_abs="385.01" NOx_abs="5869.17" fuel_abs="4705221.60" electricity_abs="0.00"
            CO_normed="613.27" CO2_normed="389188.72" HC_normed="4.39" PMx_normed="10.32" NOx_normed="157.33" fuel_normed="126128.44" electricity_normed="0.00"
            traveltime="48.73" CO_perVeh="130.14" CO2_perVeh="82588.81" HC_perVeh="0.93" PMx_perVeh="2.19" NOx_perVeh="33.39" fuel_perVeh="26765.42" electricity_perVeh="0.00"/>
        <edge id="151495018" sampledSeconds="10702.27" CO_abs="1553.21" CO2_abs="16316688.08" HC_abs="11.68" PMx_abs="42.67" NOx_abs="6566.02" fuel_abs="5289604.78" electricity_abs="0.00"
            CO_normed="59.68" CO2_normed="626962.08" HC_normed="0.45" PMx_normed="1.64" NOx_normed="252.30" fuel_normed="203250.90" electricity_normed="0.00"
            traveltime="312.52" CO_perVeh="45.36" CO2_perVeh="476462.77" HC_perVeh="0.34" PMx_perVeh="1.25" NOx_perVeh="191.73" fuel_perVeh="154461.48" electricity_perVeh="0.00"/>
        <edge id="151495020" sampledSeconds="251.66" CO_abs="8063.63" CO2_abs="1051883.85" HC_abs="60.11" PMx_abs="167.95" NOx_abs="446.45" fuel_abs="340045.84" electricity_abs="0.00"