<?xml version="1.0" encoding="UTF-8"?>

<!-- generated on 2025-11-13T06:15:55.752772+01:00 by Eclipse SUMO sumo 1.25.0
<sumoConfiguration xmlns:xsi="http://www.w3.org/2001/XMLSchema-instance" xsi:noNamespaceSchemaLocation="http://sumo.dlr.de/xsd/sumoConfiguration.xsd">

    <input>
        <net-file value="C:\Users\delphi\testreports\sumoExtra\git\tools\game\corridor/corridor.net.xml"/>
        <route-files value="C:\Users\delphi\testreports\sumoExtra\git\tools\game\corridor/corridor.rou.xml"/>
        <additional-files value="C:\Users\delphi\testreports\sumoExtra\git\tools\game\input_additional.add.xml"/>
    </input>

    <output>
        <output-prefix value="output\corridor."/>
        <tripinfo-output.write-unfinished value="true"/>
        <statistic-output value="stats.xml"/>
    </output>

    <time>
        <begin value="0"/>
        <end value="600"/>
        <step-length value="0.2"/>
    </time>

    <report>
        <verbose value="false"/>
        <xml-validation value="never"/>
        <no-warnings value="true"/>
        <log value="log"/>
        <duration-log.statistics value="true"/>
        <no-step-log value="true"/>
    </report>

    <gui_only>
        <gui-settings-file value="C:\Users\delphi\testreports\sumoExtra\git\tools\game\corridor/corridor.settings.xml"/>
    </gui_only>

</sumoConfiguration>
-->

<meandata xmlns:xsi="http://www.w3.org/2001/XMLSchema-instance" xsi:noNamespaceSchemaLocation="http://sumo.dlr.de/xsd/meandata_file.xsd">
    <interval begin="0.00" end="600.00" id="dump">
        <edge id="gneE10" sampledSeconds="1053.11" traveltime="14.05" overlapTraveltime="14.43" density="9.21" overlapDensity="9.46" laneDensity="9.21" occupancy="4.60" waitingTime="0.00" timeLoss="37.22" speed="13.21" speedRelative="0.95" departed="0" arrived="0" entered="73" left="73" laneChangedFrom="0" laneChangedTo="0" flow="437.94"/>
        <edge id="gneE11" sampledSeconds="997.05" traveltime="14.11" overlapTraveltime="14.49" density="8.72" overlapDensity="8.95" laneDensity="8.72" occupancy="4.36" waitingTime="0.00" timeLoss="39.86" speed="13.15" speedRelative="0.95" departed="0" arrived="0" entered="72" left="67" laneChangedFrom="0" laneChangedTo="0" flow="413.14"/>
        <edge id="gneE12" sampledSeconds="8455.20" traveltime="780.41" overlapTraveltime="805.95" density="92.23" overlapDensity="92.23" laneDensity="92.23" occupancy="46.11" waitingTime="7960.80" timeLoss="8336.41" speed="0.20" speedRelative="0.01" departed="21" arrived="0" entered="0" left="1" laneChangedFrom="0" laneChangedTo="0" teleported="1" flow="65.01"/>
        <edge id="gneE13" sampledSeconds="11.60" traveltime="11.80" overlapTraveltime="12.18" density="0.12" overlapDensity="0.13" laneDensity="0.12" occupancy="0.06" waitingTime="0.00" timeLoss="0.11" speed="12.95" speedRelative="0.93" departed="0" arrived="1" entered="1" left="0" laneChangedFrom="0" laneChangedTo="0" flow="5.80"/>
        <edge id="gneE14" sampledSeconds="7365.20" traveltime="679.80" overlapTraveltime="702.05" density="80.34" overlapDensity="80.34" laneDensity="80.34" occupancy="40.17" waitingTime="6872.00" timeLoss="7248.27" speed="0.22" speedRelative="0.02" departed="21" arrived="0" entered="0" left="1" laneChangedFrom="0" laneChangedTo="0" teleported="1" flow="65.01"/>
        <edge id="gneE15" sampledSeconds="10.80" traveltime="10.99" overlapTraveltime="11.34" density="0.12" overlapDensity="0.12" laneDensity="0.12" occupancy="0.06" waitingTime="0.00" timeLoss="0.09" speed="13.91" speedRelative="1.00" departed="0" arrived="1" entered="1" left="0" laneChangedFrom="0" laneChangedTo="0" flow="5.80"/>
        <edge id="gneE16" sampledSeconds="11.60" traveltime="11.83" overlapTraveltime="12.22" density="0.12" overlapDensity="0.13" laneDensity="0.12" occupancy="0.06" waitingTime="0.00" timeLoss="0.11" speed="12.91" speedRelative="0.93" departed="0" arrived="1" entered="1" left="0" laneChangedFrom="0" laneChangedTo="0" flow="5.80"/>
        <edge id="gneE17" sampledSeconds="13.00" traveltime="13.34" overlapTraveltime="13.78" density="0.14" overlapDensity="0.14" laneDensity="0.14" occupancy="0.07" waitingTime="0.00" timeLoss="0.14" speed="11.45" speedRelative="0.82" departed="0" arrived="1" entered="1" left="0" laneChangedFrom="0" laneChangedTo="0" flow="5.80"/>
        <edge id="gneE18" sampledSeconds="1335.70" traveltime="14.55" overlapTraveltime="14.95" density="11.68" overlapDensity="11.99" laneDensity="11.68" occupancy="5.84" waitingTime="0.00" timeLoss="110.28" speed="12.75" speedRelative="0.92" departed="0" arrived="0" entered="91" left="89" laneChangedFrom="0" laneChangedTo="0" flow="536.01"/>
        <edge id="gneE19" sampledSeconds="10.20" traveltime="10.47" overlapTraveltime="10.82" density="0.11" overlapDensity="0.11" laneDensity="0.11" occupancy="0.06" waitingTime="0.00" timeLoss="0.09" speed="14.59" speedRelative="1.05" departed="0" arrived="1" entered="1" left="0" laneChangedFrom="0" laneChangedTo="0" flow="5.80"/>
        <edge id="gneE20" sampledSeconds="7396.40" traveltime="682.68" overlapTraveltime="705.02" density="80.68" overlapDensity="80.68" laneDensity="80.68" occupancy="40.34" waitingTime="6996.60" timeLoss="7279.34" speed="0.22" speedRelative="0.02" departed="21" arrived="0" entered="0" left="1" laneChangedFrom="0" laneChangedTo="0" teleported="1" flow="65.01"/>
        <edge id="gneE21" sampledSeconds="7783.60" traveltime="718.42" overlapTraveltime="741.93" density="84.90" overlapDensity="84.90" laneDensity="84.90" occupancy="42.45" waitingTime="7345.60" timeLoss="7664.26" speed="0.21" speedRelative="0.02" departed="21" arrived="0" entered="0" left="1" laneChangedFrom="0" laneChangedTo="0" teleported="1" flow="65.01"/>
        <edge id="gneE22" sampledSeconds="9.60" traveltime="9.90" overlapTraveltime="10.23" density="0.10" overlapDensity="0.10" laneDensity="0.10" occupancy="0.05" waitingTime="0.00" timeLoss="0.10" speed="15.43" speedRelative="1.11" departed="0" arrived="1" entered="1" left="0" laneChangedFrom="0" laneChangedTo="0" flow="5.80"/>
        <edge id="gneE23" sampledSeconds="9116.00" traveltime="841.40" overlapTraveltime="868.93" density="99.43" overlapDensity="99.43" laneDensity="99.43" occupancy="49.72" waitingTime="8620.20" timeLoss="8998.31" speed="0.18" speedRelative="0.01" departed="21" arrived="0" entered="0" left="1" laneChangedFrom="0" laneChangedTo="0" teleported="1" flow="65.01"/>
        <edge id="gneE24" sampledSeconds="9459.00" traveltime="873.06" overlapTraveltime="901.63" density="103.17" overlapDensity="103.17" laneDensity="103.17" occupancy="51.59" waitingTime="8961.60" timeLoss="9337.55" speed="0.18" speedRelative="0.01" departed="21" arrived="0" entered="0" left="1" laneChangedFrom="0" laneChangedTo="0" teleported="1" flow="65.01"/>
        <edge id="gneE25" sampledSeconds="1352.29" traveltime="14.21" overlapTraveltime="14.60" density="11.83" overlapDensity="12.14" laneDensity="11.83" occupancy="5.91" waitingTime="0.00" timeLoss="79.79" speed="13.06" speedRelative="0.94" departed="0" arrived="0" entered="93" left="91" laneChangedFrom="0" laneChangedTo="0" flow="555.94"/>
        <edge id="gneE26" sampledSeconds="979.07" traveltime="14.74" overlapTraveltime="15.11" density="8.41" overlapDensity="8.46" laneDensity="8.41" occupancy="4.17" waitingTime="0.00" timeLoss="44.02" speed="13.09" speedRelative="0.94" departed="0" arrived="66" entered="67" left="0" laneChangedFrom="0" laneChangedTo="0" flow="396.16"/>
        <edge id="gneE27" sampledSeconds="1645.10" traveltime="17.70" overlapTraveltime="18.08" density="13.92" overlapDensity="14.22" laneDensity="13.92" occupancy="7.03" waitingTime="0.00" timeLoss="348.05" speed="10.94" speedRelative="0.79" departed="95" arrived="0" entered="0" left="93" laneChangedFrom="0" laneChangedTo="0" flow="548.25"/>
        <edge id="gneE28" sampledSeconds="1288.84" traveltime="17.69" overlapTraveltime="18.06" density="10.91" overlapDensity="11.14" laneDensity="10.91" occupancy="5.51" waitingTime="0.00" timeLoss="258.05" speed="10.95" speedRelative="0.79" departed="75" arrived="0" entered="0" left="73" laneChangedFrom="0" laneChangedTo="0" flow="429.94"/>
        <edge id="gneE29" sampledSeconds="1304.29" traveltime="15.02" overlapTraveltime="15.40" density="11.22" overlapDensity="11.28" laneDensity="11.22" occupancy="5.56" waitingTime="0.00" timeLoss="100.25" speed="12.84" speedRelative="0.92" departed="0" arrived="84" entered="89" left="0" laneChangedFrom="0" laneChangedTo="0" flow="518.46"/>
    </interval>
    <interval begin="0.00" end="600.00" id="hbefa">
        <edge id="gneE10" sampledSeconds="1025.35" CO_abs="11737.08" CO2_abs="2019286.28" HC_abs="79.00" PMx_abs="275.39" NOx_abs="730.06" fuel_abs="654629.77" electricity_abs="0.00"
            CO_normed="379.43" CO2_normed="65278.65" HC_normed="2.55" PMx_normed="8.90" NOx_normed="23.60" fuel_normed="21162.60" electricity_normed="0.00"
            traveltime="14.05" CO_perVeh="160.78" CO2_perVeh="27661.46" HC_perVeh="1.08" PMx_perVeh="3.77" NOx_perVeh="10.00" fuel_perVeh="8967.53" electricity_perVeh="0.00"/>
        <edge id="gneE11" sampledSeconds="971.48" CO_abs="10974.54" CO2_abs="1900642.22" HC_abs="73.85" PMx_abs="257.52" NOx_abs="686.68" fuel_abs="616166.69" electricity_abs="0.00"
            CO_normed="354.78" CO2_normed="61443.18" HC_normed="2.39" PMx_normed="8.32" NOx_normed="22.20" fuel_normed="19919.18" electricity_normed="0.00"
            traveltime="14.11" CO_perVeh="159.37" CO2_perVeh="27600.21" HC_perVeh="1.07" PMx_perVeh="3.74" NOx_perVeh="9.97" fuel_perVeh="8947.68" electricity_perVeh="0.00"/>
        <edge id="gneE12" sampledSeconds="8455.20" CO_abs="2613.35" CO2_abs="13038915.21" HC_abs="17.27" PMx_abs="33.32" NOx_abs="5175.63" fuel_abs="4227137.17" electricity_abs="0.00"
            CO_normed="102.62" CO2_normed="511999.29" HC_normed="0.68" PMx_normed="1.31" NOx_normed="203.23" fuel_normed="165987.06" electricity_normed="0.00"
            traveltime="780.41" CO_perVeh="241.21" CO2_perVeh="1203481.57" HC_perVeh="1.59" PMx_perVeh="3.08" NOx_perVeh="477.71" fuel_perVeh="390161.42" electricity_perVeh="0.00"/>
        <edge id="gneE13" sampledSeconds="11.41" CO_abs="112.09" CO2_abs="20965.35" HC_abs="0.75" PMx_abs="2.93" NOx_abs="7.57" fuel_abs="6796.74" electricity_abs="0.00"
            CO_normed="4.40" CO2_normed="823.25" HC_normed="0.03" PMx_normed="0.11" NOx_normed="0.30" fuel_normed="266.89" electricity_normed="0.00"
            traveltime="11.80" CO_perVeh="115.89" CO2_perVeh="21674.59" HC_perVeh="0.78" PMx_perVeh="3.03" NOx_perVeh="7.83" fuel_perVeh="7026.67" electricity_perVeh="0.00"/>
        <edge id="gneE14" sampledSeconds="7365.20" CO_abs="2776.58" CO2_abs="11394071.17" HC_abs="18.35" PMx_abs="33.65" NOx_abs="4513.98" fuel_abs="3693887.44" electricity_abs="0.00"
            CO_normed="109.03" CO2_normed="447411.17" HC_normed="0.72" PMx_normed="1.32" NOx_normed="177.25" fuel_normed="145047.94" electricity_normed="0.00"
            traveltime="679.80" CO_perVeh="256.28" CO2_perVeh="1051663.75" HC_perVeh="1.69" PMx_perVeh="3.11" NOx_perVeh="416.64" fuel_perVeh="340942.89" electricity_perVeh="0.00"/>
        <edge id="gneE15" sampledSeconds="10.63" CO_abs="154.88" CO2_abs="23708.34" HC_abs="1.04" PMx_abs="3.16" NOx_abs="8.62" fuel_abs="7685.96" electricity_abs="0.00"
            CO_normed="6.08" CO2_normed="930.96" HC_normed="0.04" PMx_normed="0.12" NOx_normed="0.34" fuel_normed="301.80" electricity_normed="0.00"
            traveltime="10.99" CO_perVeh="160.12" CO2_perVeh="24510.39" HC_perVeh="1.08" PMx_perVeh="3.26" NOx_perVeh="8.91" fuel_perVeh="7945.98" electricity_perVeh="0.00"/>
        <edge id="gneE16" sampledSeconds="11.45" CO_abs="123.67" CO2_abs="22214.92" HC_abs="0.83" PMx_abs="2.96" NOx_abs="8.00" fuel_abs="7201.83" electricity_abs="0.00"
            CO_normed="4.86" CO2_normed="872.31" HC_normed="0.03" PMx_normed="0.12" NOx_normed="0.31" fuel_normed="282.79" electricity_normed="0.00"
            traveltime="11.83" CO_perVeh="127.85" CO2_perVeh="22966.44" HC_perVeh="0.86" PMx_perVeh="3.06" NOx_perVeh="8.27" fuel_perVeh="7445.46" electricity_perVeh="0.00"/>
        <edge id="gneE17" sampledSeconds="12.91" CO_abs="102.41" CO2_abs="23514.30" HC_abs="0.69" PMx_abs="2.98" NOx_abs="8.36" fuel_abs="7623.08" electricity_abs="0.00"
            CO_normed="4.02" CO2_normed="923.34" HC_normed="0.03" PMx_normed="0.12" NOx_normed="0.33" fuel_normed="299.34" electricity_normed="0.00"
            traveltime="13.34" CO_perVeh="105.87" CO2_perVeh="24309.78" HC_perVeh="0.71" PMx_perVeh="3.08" NOx_perVeh="8.64" fuel_perVeh="7880.97" electricity_perVeh="0.00"/>
        <edge id="gneE18" sampledSeconds="1300.41" CO_abs="14200.31" CO2_abs="2523270.62" HC_abs="95.40" PMx_abs="328.81" NOx_abs="905.54" fuel_abs="818015.39" electricity_abs="0.00"
            CO_normed="459.06" CO2_normed="81571.25" HC_normed="3.08" PMx_normed="10.63" NOx_normed="29.27" fuel_normed="26444.46" electricity_normed="0.00"
            traveltime="14.55" CO_perVeh="158.91" CO2_perVeh="28236.42" HC_perVeh="1.07" PMx_perVeh="3.68" NOx_perVeh="10.13" fuel_perVeh="9153.92" electricity_perVeh="0.00"/>
        <edge id="gneE19" sampledSeconds="10.13" CO_abs="167.37" CO2_abs="23918.96" HC_abs="1.13" PMx_abs="3.29" NOx_abs="8.76" fuel_abs="7754.24" electricity_abs="0.00"
            CO_normed="6.57" CO2_normed="939.23" HC_normed="0.04" PMx_normed="0.13" NOx_normed="0.34" fuel_normed="304.49" electricity_normed="0.00"
            traveltime="10.47" CO_perVeh="173.03" CO2_perVeh="24728.13" HC_perVeh="1.16" PMx_perVeh="3.40" NOx_perVeh="9.05" fuel_perVeh="8016.56" electricity_perVeh="0.00"/>
        <edge id="gneE20" sampledSeconds="7396.40" CO_abs="2799.79" CO2_abs="11476259.07" HC_abs="18.50" PMx_abs="33.75" NOx_abs="4545.04" fuel_abs="3720532.16" electricity_abs="0.00"
            CO_normed="109.94" CO2_normed="450638.45" HC_normed="0.73" PMx_normed="1.33" NOx_normed="178.47" fuel_normed="146094.19" electricity_normed="0.00"
            traveltime="682.68" CO_perVeh="258.42" CO2_perVeh="1059249.57" HC_perVeh="1.71" PMx_perVeh="3.11" NOx_perVeh="419.50" fuel_perVeh="343402.16" electricity_perVeh="0.00"/>
        <edge id="gneE21" sampledSeconds="7783.60" CO_abs="2613.53" CO2_abs="12031885.05" HC_abs="17.27" PMx_abs="32.94" NOx_abs="4769.59" fuel_abs="3900663.29" electricity_abs="0.00"
            CO_normed="102.63" CO2_normed="472456.22" HC_normed="0.68" PMx_normed="1.29" NOx_normed="187.29" fuel_normed="153167.41" electricity_normed="0.00"
            traveltime="718.42" CO_perVeh="241.23" CO2_perVeh="1110533.38" HC_perVeh="1.59" PMx_perVeh="3.04" NOx_perVeh="440.23" fuel_perVeh="360028.11" electricity_perVeh="0.00"/>
        <edge id="gneE22" sampledSeconds="9.58" CO_abs="208.93" CO2_abs="26169.60" HC_abs="1.40" PMx_abs="3.41" NOx_abs="9.65" fuel_abs="8483.85" electricity_abs="0.00"
            CO_normed="8.20" CO2_normed="1027.60" HC_normed="0.06" PMx_normed="0.13" NOx_normed="0.38" fuel_normed="333.14" electricity_normed="0.00"
            traveltime="9.90" CO_perVeh="216.00" CO2_perVeh="27054.90" HC_perVeh="1.45" PMx_perVeh="3.52" NOx_perVeh="9.98" fuel_perVeh="8770.85" electricity_perVeh="0.00"/>
        <edge id="gneE23" sampledSeconds="9116.00" CO_abs="2754.43" CO2_abs="14056720.45" HC_abs="18.20" PMx_abs="33.18" NOx_abs="5584.84" fuel_abs="4557103.99" electricity_abs="0.00"
            CO_normed="108.16" CO2_normed="551965.46" HC_normed="0.71" PMx_normed="1.30" NOx_normed="219.30" fuel_normed="178943.87" electricity_normed="0.00"
            traveltime="841.40" CO_perVeh="254.23" CO2_perVeh="1297424.07" HC_perVeh="1.68" PMx_perVeh="3.06" NOx_perVeh="515.48" fuel_perVeh="420617.06" electricity_perVeh="0.00"/>
        <edge id="gneE24" sampledSeconds="9459.00" CO_abs="2573.18" CO2_abs="14563555.68" HC_abs="17.00" PMx_abs="32.67" NOx_abs="5788.99" fuel_abs="4721417.43" electricity_abs="0.00"
            CO_normed="101.04" CO2_normed="571867.37" HC_normed="0.67" PMx_normed="1.28" NOx_normed="227.32" fuel_normed="185395.97" electricity_normed="0.00"
            traveltime="873.06" CO_perVeh="237.50" CO2_perVeh="1344204.56" HC_perVeh="1.57" PMx_perVeh="3.02" NOx_perVeh="534.32" fuel_perVeh="435783.06" electricity_perVeh="0.00"/>
        <edge id="gneE25" sampledSeconds="1317.09" CO_abs="14842.48" CO2_abs="2577612.63" HC_abs="99.82" PMx_abs="345.48" NOx_abs="929.86" fuel_abs="835632.69" electricity_abs="0.00"
            CO_normed="479.82" CO2_normed="83327.99" HC_normed="3.23" PMx_normed="11.17" NOx_normed="30.06" fuel_normed="27013.99" electricity_normed="0.00"
            traveltime="14.21" CO_perVeh="160.14" CO2_perVeh="27811.38" HC_perVeh="1.08" PMx_perVeh="3.73" NOx_perVeh="10.03" fuel_perVeh="9016.13" electricity_perVeh="0.00"/>
        <edge id="gneE26" sampledSeconds="972.64" CO_abs="12423.29" CO2_abs="2059187.17" HC_abs="83.35" PMx_abs="263.93" NOx_abs="741.58" fuel_abs="667564.21" electricity_abs="0.00"
            CO_normed="386.62" CO2_normed="64082.59" HC_normed="2.59" PMx_normed="8.21" NOx_normed="23.08" fuel_normed="20774.82" electricity_normed="0.00"
            traveltime="14.74" CO_perVeh="188.22" CO2_perVeh="31197.27" HC_perVeh="1.26" PMx_perVeh="4.00" NOx_perVeh="11.24" fuel_perVeh="10113.79" electricity_perVeh="0.00"/>
        <edge id="gneE27" sampledSeconds="1609.98" CO_abs="28490.02" CO2_abs="5420741.50" HC_abs="189.41" PMx_abs="418.65" NOx_abs="1741.03" fuel_abs="1757314.91" electricity_abs="0.00"
            CO_normed="886.62" CO2_normed="168695.27" HC_normed="5.89" PMx_normed="13.03" NOx_normed="54.18" fuel_normed="54688.22" electricity_normed="0.00"
            traveltime="17.70" CO_perVeh="313.23" CO2_perVeh="59597.60" HC_perVeh="2.08" PMx_perVeh="4.60" NOx_perVeh="19.14" fuel_perVeh="19320.56" electricity_perVeh="0.00"/>
        <edge id="gneE28" sampledSeconds="1261.51" CO_abs="22023.37" CO2_abs="4239994.89" HC_abs="146.49" PMx_abs="333.66" NOx_abs="1362.05" fuel_abs="1374536.69" electricity_abs="0.00"
            CO_normed="685.37" CO2_normed="131950.05" HC_normed="4.56" PMx_normed="10.38" NOx_normed="42.39" fuel_normed="42776.04" electricity_normed="0.00"
            traveltime="17.69" CO_perVeh="308.82" CO2_perVeh="59453.93" HC_perVeh="2.05" PMx_perVeh="4.68" NOx_perVeh="19.10" fuel_perVeh="19273.99" electricity_perVeh="0.00"/>
        <edge id="gneE29" sampledSeconds="1297.37" CO_abs="17501.43" CO2_abs="2863331.63" HC_abs="117.17" PMx_abs="346.19" NOx_abs="1025.60" fuel_abs="928257.29" electricity_abs="0.00"
            CO_normed="544.65" CO2_normed="89107.83" HC_normed="3.65" PMx_normed="10.77" NOx_normed="31.92" fuel_normed="28887.68" electricity_normed="0.00"
            traveltime="15.02" CO_perVeh="202.62" CO2_perVeh="33150.14" HC_perVeh="1.36" PMx_perVeh="4.01" NOx_perVeh="11.87" fuel_perVeh="10746.87" electricity_perVeh="0.00"/>
    </interval>
</meandata>
