<?xml version="1.0" encoding="UTF-8"?>

<!-- generated on 2025-11-13T06:15:57.106482+01:00 by Eclipse SUMO sumo 1.25.0
<sumoConfiguration xmlns:xsi="http://www.w3.org/2001/XMLSchema-instance" xsi:noNamespaceSchemaLocation="http://sumo.dlr.de/xsd/sumoConfiguration.xsd">

    <input>
        <net-file value="C:\Users\delphi\testreports\sumoExtra\git\tools\game\cross/cross.net.xml"/>
        <route-files value="C:\Users\delphi\testreports\sumoExtra\git\tools\game\cross/cross.rou.xml"/>
        <additional-files value="C:\Users\delphi\testreports\sumoExtra\git\tools\game\cross/cross.tls.add.xml,C:\Users\delphi\testreports\sumoExtra\git\tools\game\input_additional.add.xml"/>
    </input>

    <output>
        <output-prefix value="output\cross."/>
        <tripinfo-output.write-unfinished value="true"/>
        <statistic-output value="stats.xml"/>
    </output>

    <time>
        <begin value="0"/>
        <end value="180"/>
        <step-length value=".2"/>
    </time>

    <report>
        <verbose value="false"/>
        <xml-validation value="never"/>
        <no-warnings value="true"/>
        <log value="log"/>
        <duration-log.statistics value="true"/>
        <no-step-log value="true"/>
    </report>

    <gui_only>
        <gui-settings-file value="C:\Users\delphi\testreports\sumoExtra\git\tools\game\cross/cross.settings.xml"/>
    </gui_only>

</sumoConfiguration>
-->

<meandata xmlns:xsi="http://www.w3.org/2001/XMLSchema-instance" xsi:noNamespaceSchemaLocation="http://sumo.dlr.de/xsd/meandata_file.xsd">
    <interval begin="0.00" end="180.00" id="dump">
        <edge id="1fi" sampledSeconds="100.34" traveltime="3.01" overlapTraveltime="4.28" density="9.37" overlapDensity="13.70" laneDensity="9.37" occupancy="7.00" waitingTime="16.20" timeLoss="25.82" speed="10.89" speedRelative="0.78" departed="27" arrived="0" entered="0" left="27" laneChangedFrom="0" laneChangedTo="0" flow="367.43"/>
        <edge id="1fo" sampledSeconds="19.94" traveltime="2.76" overlapTraveltime="3.10" density="2.63" overlapDensity="2.72" laneDensity="2.63" occupancy="1.27" waitingTime="0.00" timeLoss="0.18" speed="14.76" speedRelative="1.06" departed="0" arrived="7" entered="7" left="0" laneChangedFrom="0" laneChangedTo="0" flow="140.00"/>
        <edge id="1o" sampledSeconds="69.44" traveltime="9.58" overlapTraveltime="9.92" density="2.75" overlapDensity="2.84" laneDensity="2.75" occupancy="1.36" waitingTime="0.00" timeLoss="3.34" speed="14.18" speedRelative="1.02" departed="0" arrived="0" entered="7" left="7" laneChangedFrom="0" laneChangedTo="0" flow="140.20"/>
        <edge id="1si" sampledSeconds="2547.81" traveltime="156.51" overlapTraveltime="164.04" density="104.27" overlapDensity="104.27" laneDensity="34.76" occupancy="22.62" waitingTime="2279.40" timeLoss="2396.18" speed="0.87" speedRelative="0.06" departed="0" arrived="0" entered="25" left="0" laneChangedFrom="0" laneChangedTo="0" flow="325.58"/>
        <edge id="2fi" sampledSeconds="81.36" traveltime="3.40" overlapTraveltime="3.81" density="8.11" overlapDensity="9.22" laneDensity="8.11" occupancy="5.09" waitingTime="0.00" timeLoss="1.61" speed="14.42" speedRelative="1.04" departed="24" arrived="0" entered="0" left="24" laneChangedFrom="0" laneChangedTo="0" flow="421.37"/>
        <edge id="2fo" sampledSeconds="17.43" traveltime="3.40" overlapTraveltime="3.89" density="1.93" overlapDensity="1.98" laneDensity="1.93" occupancy="1.27" waitingTime="0.00" timeLoss="0.15" speed="14.43" speedRelative="1.04" departed="0" arrived="5" entered="5" left="0" laneChangedFrom="0" laneChangedTo="0" flow="100.05"/>
        <edge id="2o" sampledSeconds="48.68" traveltime="9.24" overlapTraveltime="9.74" density="2.02" overlapDensity="2.13" laneDensity="2.02" occupancy="1.42" waitingTime="0.00" timeLoss="2.56" speed="13.80" speedRelative="0.99" departed="0" arrived="0" entered="5" left="5" laneChangedFrom="0" laneChangedTo="0" flow="100.34"/>
        <edge id="2si" sampledSeconds="2227.41" traveltime="127.32" overlapTraveltime="133.28" density="97.39" overlapDensity="97.39" laneDensity="32.46" occupancy="19.24" waitingTime="1963.40" timeLoss="2076.29" speed="1.00" speedRelative="0.07" departed="0" arrived="0" entered="24" left="0" laneChangedFrom="0" laneChangedTo="0" flow="349.88"/>
        <edge id="3fi" sampledSeconds="71.03" traveltime="3.24" overlapTraveltime="3.72" density="7.29" overlapDensity="8.55" laneDensity="7.29" occupancy="5.29" waitingTime="0.00" timeLoss="1.41" speed="14.26" speedRelative="1.03" departed="22" arrived="0" entered="0" left="22" laneChangedFrom="0" laneChangedTo="0" flow="374.10"/>
        <edge id="3fo" sampledSeconds="16.51" traveltime="3.22" overlapTraveltime="3.68" density="1.94" overlapDensity="1.99" laneDensity="1.94" occupancy="1.19" waitingTime="0.00" timeLoss="0.14" speed="14.33" speedRelative="1.03" departed="0" arrived="5" entered="5" left="0" laneChangedFrom="0" laneChangedTo="0" flow="100.00"/>
        <edge id="3o" sampledSeconds="47.17" traveltime="8.98" overlapTraveltime="9.44" density="1.94" overlapDensity="2.04" laneDensity="1.94" occupancy="1.27" waitingTime="0.00" timeLoss="0.44" speed="14.31" speedRelative="1.03" departed="0" arrived="0" entered="5" left="5" laneChangedFrom="0" laneChangedTo="0" flow="99.95"/>
        <edge id="3si" sampledSeconds="522.67" traveltime="24.05" overlapTraveltime="24.50" density="22.16" overlapDensity="22.59" laneDensity="11.08" occupancy="6.35" waitingTime="303.20" timeLoss="324.34" speed="5.48" speedRelative="0.39" departed="0" arrived="0" entered="22" left="17" laneChangedFrom="0" laneChangedTo="0" flow="437.34"/>
        <edge id="4fi" sampledSeconds="54.23" traveltime="3.20" overlapTraveltime="3.60" density="5.71" overlapDensity="6.53" laneDensity="5.71" occupancy="3.55" waitingTime="0.00" timeLoss="1.10" speed="14.43" speedRelative="1.04" departed="17" arrived="0" entered="0" left="17" laneChangedFrom="0" laneChangedTo="0" flow="296.39"/>
        <edge id="4fo" sampledSeconds="33.30" traveltime="3.23" overlapTraveltime="3.79" density="3.89" overlapDensity="4.01" laneDensity="3.89" occupancy="2.85" waitingTime="0.00" timeLoss="0.32" speed="14.30" speedRelative="1.03" departed="0" arrived="10" entered="10" left="0" laneChangedFrom="0" laneChangedTo="0" flow="200.06"/>
        <edge id="4o" sampledSeconds="100.21" traveltime="8.82" overlapTraveltime="9.38" density="4.14" overlapDensity="4.39" laneDensity="4.14" occupancy="3.24" waitingTime="0.00" timeLoss="0.90" speed="14.38" speedRelative="1.04" departed="0" arrived="0" entered="11" left="10" laneChangedFrom="0" laneChangedTo="0" flow="214.50"/>
        <edge id="4si" sampledSeconds="477.11" traveltime="28.34" overlapTraveltime="28.97" density="20.62" overlapDensity="20.90" laneDensity="10.31" occupancy="5.66" waitingTime="307.00" timeLoss="327.64" speed="4.57" speedRelative="0.33" departed="0" arrived="0" entered="17" left="13" laneChangedFrom="0" laneChangedTo="0" flow="339.18"/>
    </interval>
    <interval begin="0.00" end="180.00" id="hbefa">
        <edge id="1fi" sampledSeconds="68.63" CO_abs="1288.41" CO2_abs="169587.00" HC_abs="8.61" PMx_abs="19.97" NOx_abs="61.91" fuel_abs="54977.88" electricity_abs="0.00"
            CO_normed="633.13" CO2_normed="83335.13" HC_normed="4.23" PMx_normed="9.81" NOx_normed="30.42" fuel_normed="27016.16" electricity_normed="0.00"
            traveltime="3.01" CO_perVeh="56.54" CO2_perVeh="7442.12" HC_perVeh="0.38" PMx_perVeh="0.88" NOx_perVeh="2.72" fuel_perVeh="2412.64" electricity_perVeh="0.00"/>
        <edge id="1fo" sampledSeconds="19.30" CO_abs="255.30" CO2_abs="40493.33" HC_abs="1.73" PMx_abs="6.46" NOx_abs="14.91" fuel_abs="13127.50" electricity_abs="0.00"
            CO_normed="125.46" CO2_normed="19898.44" HC_normed="0.85" PMx_normed="3.18" NOx_normed="7.33" fuel_normed="6450.86" electricity_normed="0.00"
            traveltime="2.76" CO_perVeh="36.47" CO2_perVeh="5784.76" HC_perVeh="0.25" PMx_perVeh="0.92" NOx_perVeh="2.13" fuel_perVeh="1875.36" electricity_perVeh="0.00"/>
        <edge id="1o" sampledSeconds="67.07" CO_abs="1822.01" CO2_abs="241169.97" HC_abs="12.14" PMx_abs="24.48" NOx_abs="85.67" fuel_abs="78183.93" electricity_abs="0.00"
            CO_normed="268.59" CO2_normed="35552.44" HC_normed="1.79" PMx_normed="3.61" NOx_normed="12.63" fuel_normed="11525.60" electricity_normed="0.00"
            traveltime="9.58" CO_perVeh="260.29" CO2_perVeh="34452.85" HC_perVeh="1.73" PMx_perVeh="3.50" NOx_perVeh="12.24" fuel_perVeh="11169.13" electricity_perVeh="0.00"/>
        <edge id="1si" sampledSeconds="2547.81" CO_abs="1344.71" CO2_abs="3715957.88" HC_abs="9.08" PMx_abs="30.85" NOx_abs="1490.82" fuel_abs="1204692.87" electricity_abs="0.00"
            CO_normed="198.12" CO2_normed="547470.77" HC_normed="1.34" PMx_normed="4.54" NOx_normed="219.64" fuel_normed="177486.98" electricity_normed="0.00"
            traveltime="156.51" CO_perVeh="82.61" CO2_perVeh="228269.80" HC_perVeh="0.56" PMx_perVeh="1.90" NOx_perVeh="91.58" fuel_perVeh="74003.80" electricity_perVeh="0.00"/>
        <edge id="2fi" sampledSeconds="71.57" CO_abs="1665.35" CO2_abs="210315.13" HC_abs="11.12" PMx_abs="24.05" NOx_abs="76.92" fuel_abs="68181.33" electricity_abs="0.00"
            CO_normed="679.73" CO2_normed="85842.91" HC_normed="4.54" PMx_normed="9.82" NOx_normed="31.40" fuel_normed="27829.12" electricity_normed="0.00"
            traveltime="3.40" CO_perVeh="79.14" CO2_perVeh="9994.61" HC_perVeh="0.53" PMx_perVeh="1.14" NOx_perVeh="3.66" fuel_perVeh="3240.12" electricity_perVeh="0.00"/>
        <edge id="2fo" sampledSeconds="16.99" CO_abs="222.05" CO2_abs="35620.24" HC_abs="1.50" PMx_abs="5.45" NOx_abs="13.05" fuel_abs="11547.69" electricity_abs="0.00"
            CO_normed="90.63" CO2_normed="14538.87" HC_normed="0.61" PMx_normed="2.23" NOx_normed="5.32" fuel_normed="4713.34" electricity_normed="0.00"
            traveltime="3.40" CO_perVeh="44.41" CO2_perVeh="7124.32" HC_perVeh="0.30" PMx_perVeh="1.09" NOx_perVeh="2.61" fuel_perVeh="2309.63" electricity_perVeh="0.00"/>
        <edge id="2o" sampledSeconds="46.20" CO_abs="1194.70" CO2_abs="163752.18" HC_abs="7.96" PMx_abs="16.34" NOx_abs="57.79" fuel_abs="53086.17" electricity_abs="0.00"
            CO_normed="188.04" CO2_normed="25773.54" HC_normed="1.25" PMx_normed="2.57" NOx_normed="9.10" fuel_normed="8355.42" electricity_normed="0.00"
            traveltime="9.24" CO_perVeh="238.94" CO2_perVeh="32750.44" HC_perVeh="1.59" PMx_perVeh="3.27" NOx_perVeh="11.56" fuel_perVeh="10617.23" electricity_perVeh="0.00"/>
        <edge id="2si" sampledSeconds="2227.41" CO_abs="1391.70" CO2_abs="3231408.17" HC_abs="9.38" PMx_abs="29.48" NOx_abs="1296.04" fuel_abs="1047604.39" electricity_abs="0.00"
            CO_normed="219.06" CO2_normed="508642.87" HC_normed="1.48" PMx_normed="4.64" NOx_normed="204.00" fuel_normed="164899.16" electricity_normed="0.00"
            traveltime="127.32" CO_perVeh="79.55" CO2_perVeh="184715.77" HC_perVeh="0.54" PMx_perVeh="1.69" NOx_perVeh="74.08" fuel_perVeh="59883.82" electricity_perVeh="0.00"/>
        <edge id="3fi" sampledSeconds="60.52" CO_abs="1249.86" CO2_abs="165038.21" HC_abs="8.35" PMx_abs="19.42" NOx_abs="60.18" fuel_abs="53503.22" electricity_abs="0.00"
            CO_normed="541.89" CO2_normed="71553.53" HC_normed="3.62" PMx_normed="8.42" NOx_normed="26.09" fuel_normed="23196.71" electricity_normed="0.00"
            traveltime="3.24" CO_perVeh="66.93" CO2_perVeh="8838.08" HC_perVeh="0.45" PMx_perVeh="1.04" NOx_perVeh="3.22" fuel_perVeh="2865.19" electricity_perVeh="0.00"/>
        <edge id="3fo" sampledSeconds="16.09" CO_abs="208.26" CO2_abs="31650.39" HC_abs="1.40" PMx_abs="4.51" NOx_abs="11.57" fuel_abs="10260.69" electricity_abs="0.00"
            CO_normed="90.29" CO2_normed="13722.26" HC_normed="0.61" PMx_normed="1.96" NOx_normed="5.02" fuel_normed="4448.60" electricity_normed="0.00"
            traveltime="3.22" CO_perVeh="41.65" CO2_perVeh="6330.08" HC_perVeh="0.28" PMx_perVeh="0.90" NOx_perVeh="2.31" fuel_perVeh="2052.14" electricity_perVeh="0.00"/>
        <edge id="3o" sampledSeconds="44.88" CO_abs="610.67" CO2_abs="92620.33" HC_abs="4.12" PMx_abs="13.17" NOx_abs="33.87" fuel_abs="30026.44" electricity_abs="0.00"
            CO_normed="95.04" CO2_normed="14414.49" HC_normed="0.64" PMx_normed="2.05" NOx_normed="5.27" fuel_normed="4673.01" electricity_normed="0.00"
            traveltime="8.98" CO_perVeh="122.13" CO2_perVeh="18524.07" HC_perVeh="0.82" PMx_perVeh="2.63" NOx_perVeh="6.77" fuel_perVeh="6005.29" electricity_perVeh="0.00"/>
        <edge id="3si" sampledSeconds="512.59" CO_abs="2568.42" CO2_abs="849657.30" HC_abs="17.28" PMx_abs="52.88" NOx_abs="328.05" fuel_abs="275451.93" electricity_abs="0.00"
            CO_normed="399.66" CO2_normed="132211.51" HC_normed="2.69" PMx_normed="8.23" NOx_normed="51.05" fuel_normed="42861.89" electricity_normed="0.00"
            traveltime="24.05" CO_perVeh="120.50" CO2_perVeh="39862.32" HC_perVeh="0.81" PMx_perVeh="2.48" NOx_perVeh="15.39" fuel_perVeh="12923.04" electricity_perVeh="0.00"/>
        <edge id="4fi" sampledSeconds="47.38" CO_abs="1089.99" CO2_abs="140622.62" HC_abs="7.29" PMx_abs="16.64" NOx_abs="51.47" fuel_abs="45588.00" electricity_abs="0.00"
            CO_normed="472.57" CO2_normed="60967.97" HC_normed="3.16" PMx_normed="7.21" NOx_normed="22.31" fuel_normed="19765.01" electricity_normed="0.00"
            traveltime="3.20" CO_perVeh="73.67" CO2_perVeh="9504.51" HC_perVeh="0.49" PMx_perVeh="1.12" NOx_perVeh="3.48" fuel_perVeh="3081.24" electricity_perVeh="0.00"/>
        <edge id="4fo" sampledSeconds="32.27" CO_abs="444.45" CO2_abs="67842.49" HC_abs="3.00" PMx_abs="9.67" NOx_abs="24.81" fuel_abs="21993.75" electricity_abs="0.00"
            CO_normed="192.69" CO2_normed="29413.61" HC_normed="1.30" PMx_normed="4.19" NOx_normed="10.76" fuel_normed="9535.55" electricity_normed="0.00"
            traveltime="3.23" CO_perVeh="44.44" CO2_perVeh="6784.25" HC_perVeh="0.30" PMx_perVeh="0.97" NOx_perVeh="2.48" fuel_perVeh="2199.38" electricity_perVeh="0.00"/>
        <edge id="4o" sampledSeconds="94.61" CO_abs="1291.47" CO2_abs="196941.88" HC_abs="8.71" PMx_abs="28.43" NOx_abs="72.09" fuel_abs="63846.30" electricity_abs="0.00"
            CO_normed="203.67" CO2_normed="31058.49" HC_normed="1.37" PMx_normed="4.48" NOx_normed="11.37" fuel_normed="10068.81" electricity_normed="0.00"
            traveltime="8.82" CO_perVeh="120.37" CO2_perVeh="18356.14" HC_perVeh="0.81" PMx_perVeh="2.65" NOx_perVeh="6.72" fuel_perVeh="5950.85" electricity_perVeh="0.00"/>
        <edge id="4si" sampledSeconds="470.83" CO_abs="1756.34" CO2_abs="741752.69" HC_abs="11.86" PMx_abs="39.43" NOx_abs="289.15" fuel_abs="240470.69" electricity_abs="0.00"
            CO_normed="276.92" CO2_normed="116949.58" HC_normed="1.87" PMx_normed="6.22" NOx_normed="45.59" fuel_normed="37914.18" electricity_normed="0.00"
            traveltime="28.34" CO_perVeh="105.72" CO2_perVeh="44647.29" HC_perVeh="0.71" PMx_perVeh="2.37" NOx_perVeh="17.40" fuel_perVeh="14474.32" electricity_perVeh="0.00"/>
    </interval>
</meandata>
