<?xml version="1.0" encoding="UTF-8"?>

<!-- generated on 2025-11-13T06:16:10.040098+01:00 by Eclipse SUMO sumo 1.25.0
<sumoConfiguration xmlns:xsi="http://www.w3.org/2001/XMLSchema-instance" xsi:noNamespaceSchemaLocation="http://sumo.dlr.de/xsd/sumoConfiguration.xsd">

    <input>
        <net-file value="C:\Users\delphi\testreports\sumoExtra\git\tools\game\ramp/ramp.net.xml"/>
        <route-files value="C:\Users\delphi\testreports\sumoExtra\git\tools\game\ramp/ramp.rou.xml"/>
        <additional-files value="C:\Users\delphi\testreports\sumoExtra\git\tools\game\input_additional.add.xml"/>
    </input>

    <output>
        <output-prefix value="output\ramp."/>
        <tripinfo-output.write-unfinished value="true"/>
        <statistic-output value="stats.xml"/>
    </output>

    <time>
        <begin value="0"/>
        <end value="400"/>
        <step-length value=".2"/>
    </time>

    <report>
        <verbose value="false"/>
        <xml-validation value="never"/>
        <no-warnings value="true"/>
        <log value="log"/>
        <duration-log.statistics value="true"/>
        <no-step-log value="true"/>
    </report>

    <gui_only>
        <gui-settings-file value="C:\Users\delphi\testreports\sumoExtra\git\tools\game\ramp/ramp_settings.xml"/>
    </gui_only>

</sumoConfiguration>
-->

<meandata xmlns:xsi="http://www.w3.org/2001/XMLSchema-instance" xsi:noNamespaceSchemaLocation="http://sumo.dlr.de/xsd/meandata_file.xsd">
    <interval begin="0.00" end="400.00" id="dump">
        <edge id="gneE11" sampledSeconds="15396.27" traveltime="40.13" overlapTraveltime="40.37" density="34.63" overlapDensity="34.70" laneDensity="17.32" occupancy="11.54" waitingTime="0.00" timeLoss="1965.24" speed="27.65" speedRelative="0.83" departed="0" arrived="352" entered="417" left="0" laneChangedFrom="33" laneChangedTo="33" flow="3446.50"/>
        <edge id="gneE13" sampledSeconds="195.93" traveltime="1.35" overlapTraveltime="1.93" density="20.75" overlapDensity="29.16" laneDensity="20.75" occupancy="13.64" waitingTime="0.00" timeLoss="87.91" speed="12.28" speedRelative="0.37" departed="0" arrived="0" entered="103" left="103" laneChangedFrom="0" laneChangedTo="0" flow="917.62"/>
        <edge id="gneE14" sampledSeconds="258.95" traveltime="1.98" overlapTraveltime="2.54" density="21.85" overlapDensity="27.78" laneDensity="21.85" occupancy="14.09" waitingTime="0.00" timeLoss="61.99" speed="11.83" speedRelative="0.85" departed="0" arrived="0" entered="103" left="103" laneChangedFrom="0" laneChangedTo="0" flow="930.49"/>
        <edge id="gneE15" sampledSeconds="1973.09" traveltime="18.68" overlapTraveltime="19.22" density="20.74" overlapDensity="21.34" laneDensity="20.74" occupancy="13.81" waitingTime="0.00" timeLoss="186.48" speed="12.37" speedRelative="0.89" departed="108" arrived="0" entered="0" left="104" laneChangedFrom="0" laneChangedTo="0" flow="923.44"/>
        <edge id="gneE16" sampledSeconds="1676.27" traveltime="46.00" overlapTraveltime="47.35" density="110.16" overlapDensity="112.41" laneDensity="110.16" occupancy="59.14" waitingTime="1261.20" timeLoss="1566.68" speed="0.91" speedRelative="0.07" departed="0" arrived="0" entered="37" left="34" laneChangedFrom="0" laneChangedTo="0" flow="360.15"/>
        <edge id="gneE17" sampledSeconds="267.32" traveltime="2.04" overlapTraveltime="2.60" density="21.30" overlapDensity="26.89" laneDensity="21.30" occupancy="13.92" waitingTime="0.00" timeLoss="30.15" speed="12.16" speedRelative="0.88" departed="0" arrived="0" entered="104" left="103" laneChangedFrom="0" laneChangedTo="0" flow="932.38"/>
        <edge id="gneE18" sampledSeconds="958.50" traveltime="6.59" overlapTraveltime="7.09" density="27.91" overlapDensity="30.00" laneDensity="27.91" occupancy="17.54" waitingTime="0.00" timeLoss="142.60" speed="12.17" speedRelative="0.88" departed="0" arrived="0" entered="137" left="133" laneChangedFrom="0" laneChangedTo="0" flow="1222.54"/>
        <edge id="gneE2" sampledSeconds="13045.41" traveltime="31.08" overlapTraveltime="31.87" density="83.39" overlapDensity="85.51" laneDensity="27.80" occupancy="17.76" waitingTime="2730.80" timeLoss="8077.83" speed="12.17" speedRelative="0.37" departed="458" arrived="0" entered="0" left="401" laneChangedFrom="167" laneChangedTo="167" flow="3652.90"/>
        <edge id="gneE3" sampledSeconds="3912.66" traveltime="11.08" overlapTraveltime="11.49" density="44.19" overlapDensity="45.74" laneDensity="22.09" occupancy="14.60" waitingTime="0.00" timeLoss="1552.95" speed="19.20" speedRelative="0.58" departed="0" arrived="0" entered="352" left="331" laneChangedFrom="31" laneChangedTo="31" flow="3053.49"/>
        <edge id="gneE4" sampledSeconds="2533.82" traveltime="58.39" overlapTraveltime="66.87" density="90.28" overlapDensity="102.47" laneDensity="90.28" occupancy="57.20" waitingTime="1592.20" timeLoss="2347.61" speed="1.02" speedRelative="0.07" departed="0" arrived="0" entered="40" left="37" laneChangedFrom="0" laneChangedTo="0" flow="330.33"/>
        <edge id="gneE7" sampledSeconds="2995.46" traveltime="6.67" overlapTraveltime="7.01" density="64.52" overlapDensity="67.63" laneDensity="21.51" occupancy="14.47" waitingTime="62.20" timeLoss="1409.47" speed="16.77" speedRelative="0.50" departed="0" arrived="0" entered="433" left="424" laneChangedFrom="113" laneChangedTo="113" flow="3896.21"/>
        <edge id="gneE8" sampledSeconds="1867.79" traveltime="4.20" overlapTraveltime="4.45" density="43.17" overlapDensity="45.76" laneDensity="21.59" occupancy="14.22" waitingTime="0.00" timeLoss="427.60" speed="24.42" speedRelative="0.73" departed="0" arrived="0" entered="424" left="417" laneChangedFrom="4" laneChangedTo="4" flow="3795.14"/>
        <edge id="gneE9" sampledSeconds="251.30" traveltime="8.69" overlapTraveltime="8.91" density="3.15" overlapDensity="3.18" laneDensity="3.15" occupancy="1.75" waitingTime="0.00" timeLoss="78.23" speed="22.80" speedRelative="0.68" departed="0" arrived="26" entered="30" left="0" laneChangedFrom="0" laneChangedTo="0" flow="258.52"/>
        <edge id="offramp" sampledSeconds="2782.94" traveltime="6.54" overlapTraveltime="7.02" density="122.32" overlapDensity="131.32" laneDensity="40.77" occupancy="25.03" waitingTime="982.77" timeLoss="2037.46" speed="8.46" speedRelative="0.25" departed="0" arrived="0" entered="401" left="392" laneChangedFrom="4" laneChangedTo="4" flow="3726.57"/>
    </interval>
    <interval begin="0.00" end="400.00" id="hbefa">
        <edge id="gneE11" sampledSeconds="15365.28" CO_abs="1508992.02" CO2_abs="89199058.45" HC_abs="10211.95" PMx_abs="12201.22" NOx_abs="38104.88" fuel_abs="28916764.52" electricity_abs="0.00"
            CO_normed="12243.56" CO2_normed="723737.66" HC_normed="82.86" PMx_normed="99.00" NOx_normed="309.17" fuel_normed="234623.01" electricity_normed="0.00"
            traveltime="40.13" CO_perVeh="3941.30" CO2_perVeh="232977.17" HC_perVeh="26.67" PMx_perVeh="31.87" NOx_perVeh="99.53" fuel_perVeh="75527.10" electricity_perVeh="0.00"/>
        <edge id="gneE13" sampledSeconds="139.46" CO_abs="3646.93" CO2_abs="452478.21" HC_abs="24.15" PMx_abs="35.94" NOx_abs="160.62" fuel_abs="146686.61" electricity_abs="0.00"
            CO_normed="1953.71" CO2_normed="242399.04" HC_normed="12.94" PMx_normed="19.25" NOx_normed="86.05" fuel_normed="78582.11" electricity_normed="0.00"
            traveltime="1.35" CO_perVeh="35.41" CO2_perVeh="4393.00" HC_perVeh="0.23" PMx_perVeh="0.35" NOx_perVeh="1.56" fuel_perVeh="1424.15" electricity_perVeh="0.00"/>
        <edge id="gneE14" sampledSeconds="203.68" CO_abs="3399.60" CO2_abs="509093.55" HC_abs="22.58" PMx_abs="46.96" NOx_abs="178.17" fuel_abs="165041.07" electricity_abs="0.00"
            CO_normed="1313.15" CO2_normed="196645.58" HC_normed="8.72" PMx_normed="18.14" NOx_normed="68.82" fuel_normed="63749.77" electricity_normed="0.00"
            traveltime="1.98" CO_perVeh="33.01" CO2_perVeh="4942.66" HC_perVeh="0.22" PMx_perVeh="0.46" NOx_perVeh="1.73" fuel_perVeh="1602.34" electricity_perVeh="0.00"/>
        <edge id="gneE15" sampledSeconds="1917.32" CO_abs="20580.69" CO2_abs="3808800.11" HC_abs="138.01" PMx_abs="468.88" NOx_abs="1353.01" fuel_abs="1234768.40" electricity_abs="0.00"
            CO_normed="801.46" CO2_normed="148324.18" HC_normed="5.37" PMx_normed="18.26" NOx_normed="52.69" fuel_normed="48084.96" electricity_normed="0.00"
            traveltime="18.68" CO_perVeh="200.51" CO2_perVeh="37107.49" HC_perVeh="1.34" PMx_perVeh="4.57" NOx_perVeh="13.18" fuel_perVeh="12029.81" electricity_perVeh="0.00"/>
        <edge id="gneE16" sampledSeconds="1642.70" CO_abs="1376.40" CO2_abs="2643436.26" HC_abs="9.07" PMx_abs="23.49" NOx_abs="985.35" fuel_abs="856978.50" electricity_abs="0.00"
            CO_normed="332.28" CO2_normed="638168.62" HC_normed="2.19" PMx_normed="5.67" NOx_normed="237.88" fuel_normed="206888.59" electricity_normed="0.00"
            traveltime="46.00" CO_perVeh="38.54" CO2_perVeh="74022.71" HC_perVeh="0.25" PMx_perVeh="0.66" NOx_perVeh="27.59" fuel_perVeh="23997.50" electricity_perVeh="0.00"/>
        <edge id="gneE17" sampledSeconds="211.72" CO_abs="2059.43" CO2_abs="395296.59" HC_abs="13.82" PMx_abs="49.87" NOx_abs="141.05" fuel_abs="128150.67" electricity_abs="0.00"
            CO_normed="745.87" CO2_normed="143165.77" HC_normed="5.01" PMx_normed="18.06" NOx_normed="51.08" fuel_normed="46412.72" electricity_normed="0.00"
            traveltime="2.04" CO_perVeh="19.88" CO2_perVeh="3815.76" HC_perVeh="0.13" PMx_perVeh="0.48" NOx_perVeh="1.36" fuel_perVeh="1237.03" electricity_perVeh="0.00"/>
        <edge id="gneE18" sampledSeconds="891.86" CO_abs="14427.07" CO2_abs="2329751.34" HC_abs="96.04" PMx_abs="231.76" NOx_abs="812.74" fuel_abs="755274.29" electricity_abs="0.00"
            CO_normed="1625.48" CO2_normed="262490.76" HC_normed="10.82" PMx_normed="26.11" NOx_normed="91.57" fuel_normed="85096.00" electricity_normed="0.00"
            traveltime="6.59" CO_perVeh="106.56" CO2_perVeh="17208.56" HC_perVeh="0.71" PMx_perVeh="1.71" NOx_perVeh="6.00" fuel_perVeh="5578.79" electricity_perVeh="0.00"/>
        <edge id="gneE2" sampledSeconds="12722.51" CO_abs="597509.27" CO2_abs="45641659.19" HC_abs="4015.12" PMx_abs="4299.34" NOx_abs="18937.82" fuel_abs="14796276.76" electricity_abs="0.00"
            CO_normed="14099.22" CO2_normed="1076990.46" HC_normed="94.74" PMx_normed="101.45" NOx_normed="446.87" fuel_normed="349142.63" electricity_normed="0.00"
            traveltime="31.08" CO_perVeh="1459.69" CO2_perVeh="111500.37" HC_perVeh="9.81" PMx_perVeh="10.50" NOx_perVeh="46.26" fuel_perVeh="36146.59" electricity_perVeh="0.00"/>
        <edge id="gneE3" sampledSeconds="3779.47" CO_abs="184530.67" CO2_abs="12771591.60" HC_abs="1253.21" PMx_abs="1708.48" NOx_abs="5209.73" fuel_abs="4140345.56" electricity_abs="0.00"
            CO_normed="7766.44" CO2_normed="537524.90" HC_normed="52.74" PMx_normed="71.91" NOx_normed="219.26" fuel_normed="174256.97" electricity_normed="0.00"
            traveltime="11.08" CO_perVeh="541.15" CO2_perVeh="37453.87" HC_perVeh="3.68" PMx_perVeh="5.01" NOx_perVeh="15.28" fuel_perVeh="12141.95" electricity_perVeh="0.00"/>
        <edge id="gneE4" sampledSeconds="2232.40" CO_abs="941.16" CO2_abs="3189971.69" HC_abs="6.26" PMx_abs="36.32" NOx_abs="1206.89" fuel_abs="1034162.40" electricity_abs="0.00"
            CO_normed="137.02" CO2_normed="464408.69" HC_normed="0.91" PMx_normed="5.29" NOx_normed="175.70" fuel_normed="150557.45" electricity_normed="0.00"
            traveltime="58.39" CO_perVeh="24.62" CO2_perVeh="83433.81" HC_perVeh="0.16" PMx_perVeh="0.95" NOx_perVeh="31.57" fuel_perVeh="27048.55" electricity_perVeh="0.00"/>
        <edge id="gneE7" sampledSeconds="2857.93" CO_abs="155597.58" CO2_abs="13234377.51" HC_abs="1045.54" PMx_abs="1316.79" NOx_abs="5062.50" fuel_abs="4290365.51" electricity_abs="0.00"
            CO_normed="12646.78" CO2_normed="1075674.14" HC_normed="84.98" PMx_normed="107.03" NOx_normed="411.47" fuel_normed="348715.70" electricity_normed="0.00"
            traveltime="6.67" CO_perVeh="363.14" CO2_perVeh="30886.96" HC_perVeh="2.44" PMx_perVeh="3.07" NOx_perVeh="11.82" fuel_perVeh="10013.04" electricity_perVeh="0.00"/>
        <edge id="gneE8" sampledSeconds="1762.22" CO_abs="194300.23" CO2_abs="12880937.04" HC_abs="1302.64" PMx_abs="1371.79" NOx_abs="5324.13" fuel_abs="4175767.85" electricity_abs="0.00"
            CO_normed="17135.74" CO2_normed="1135996.41" HC_normed="114.88" PMx_normed="120.98" NOx_normed="469.55" fuel_normed="368269.58" electricity_normed="0.00"
            traveltime="4.20" CO_perVeh="462.61" CO2_perVeh="30668.55" HC_perVeh="3.10" PMx_perVeh="3.27" NOx_perVeh="12.68" fuel_perVeh="9942.19" electricity_perVeh="0.00"/>
        <edge id="gneE9" sampledSeconds="248.76" CO_abs="56199.56" CO2_abs="3463434.20" HC_abs="372.83" PMx_abs="271.69" NOx_abs="1481.03" fuel_abs="1122773.37" electricity_abs="0.00"
            CO_normed="2561.64" CO2_normed="157867.35" HC_normed="16.99" PMx_normed="12.38" NOx_normed="67.51" fuel_normed="51177.31" electricity_normed="0.00"
            traveltime="8.69" CO_perVeh="1963.64" CO2_perVeh="121014.35" HC_perVeh="13.03" PMx_perVeh="9.49" NOx_perVeh="51.75" fuel_perVeh="39230.34" electricity_perVeh="0.00"/>
        <edge id="offramp" sampledSeconds="2592.22" CO_abs="49210.07" CO2_abs="5450821.98" HC_abs="334.68" PMx_abs="469.52" NOx_abs="2199.05" fuel_abs="1767089.04" electricity_abs="0.00"
            CO_normed="8359.58" CO2_normed="925960.70" HC_normed="56.85" PMx_normed="79.76" NOx_normed="373.56" fuel_normed="300185.00" electricity_normed="0.00"
            traveltime="6.54" CO_perVeh="124.24" CO2_perVeh="13761.83" HC_perVeh="0.84" PMx_perVeh="1.19" NOx_perVeh="5.55" fuel_perVeh="4461.42" electricity_perVeh="0.00"/>
    </interval>
</meandata>
