<?xml version="1.0" encoding="UTF-8"?>

<!-- generated on 2025-11-13T06:16:12.182012+01:00 by Eclipse SUMO sumo 1.25.0
<sumoConfiguration xmlns:xsi="http://www.w3.org/2001/XMLSchema-instance" xsi:noNamespaceSchemaLocation="http://sumo.dlr.de/xsd/sumoConfiguration.xsd">

    <input>
        <net-file value="C:\Users\delphi\testreports\sumoExtra\git\tools\game\square/square.net.xml"/>
        <additional-files value="C:\Users\delphi\testreports\sumoExtra\git\tools\game\square/square.tll.xml,C:\Users\delphi\testreports\sumoExtra\git\tools\game\square/square.poi.xml,C:\Users\delphi\testreports\sumoExtra\git\tools\game\square/square.rou.xml,C:\Users\delphi\testreports\sumoExtra\git\tools\game\input_additional.add.xml"/>
    </input>

    <output>
        <output-prefix value="output\square."/>
        <human-readable-time value="false"/>
        <tripinfo-output value="C:\Users\delphi\testreports\sumoExtra\git\tools\game\tripinfos.xml"/>
        <tripinfo-output.write-unfinished value="true"/>
        <tripinfo-output.write-undeparted value="true"/>
        <statistic-output value="stats.xml"/>
    </output>

    <time>
        <begin value="0"/>
        <end value="180"/>
        <step-length value=".1"/>
    </time>

    <report>
        <verbose value="false"/>
        <xml-validation value="never"/>
        <no-warnings value="true"/>
        <log value="log"/>
        <duration-log.statistics value="true"/>
        <no-step-log value="true"/>
    </report>

    <gui_only>
        <gui-settings-file value="C:\Users\delphi\testreports\sumoExtra\git\tools\game\square/settings.xml"/>
    </gui_only>

</sumoConfiguration>
-->

<tripinfos xmlns:xsi="http://www.w3.org/2001/XMLSchema-instance" xsi:noNamespaceSchemaLocation="http://sumo.dlr.de/xsd/tripinfo_file.xsd">
    <tripinfo id="vertic.0" depart="0.00" departLane="top0A1_0" departPos="5.10" departSpeed="13.89" departDelay="0.00" arrival="29.30" arrivalLane="A0bottom0_0" arrivalPos="182.80" arrivalSpeed="16.56" duration="29.30" routeLength="484.90" waitingTime="0.00" waitingCount="0" stopTime="0.00" timeLoss="0.22" rerouteNo="0" devices="tripinfo_vertic.0" vType="DEFAULT_VEHTYPE" speedFactor="1.20" vaporized=""/>
    <tripinfo id="vertic.1" depart="4.00" departLane="bottom1B0_0" departPos="5.10" departSpeed="13.89" departDelay="0.00" arrival="36.60" arrivalLane="B1top1_0" arrivalPos="182.80" arrivalSpeed="14.85" duration="32.60" routeLength="484.90" waitingTime="0.00" waitingCount="0" stopTime="0.00" timeLoss="0.15" rerouteNo="0" devices="tripinfo_vertic.1" vType="DEFAULT_VEHTYPE" speedFactor="1.08" vaporized=""/>
    <tripinfo id="emergency1.0" depart="0.00" departLane="bottom0A0_0" departPos="6.60" departSpeed="0.00" departDelay="0.00" arrival="39.00" arrivalLane="A1top0_0" arrivalPos="192.80" arrivalSpeed="13.76" duration="39.00" routeLength="493.40" waitingTime="0.00" waitingCount="0" stopTime="0.00" timeLoss="3.40" rerouteNo="0" devices="tripinfo_emergency1.0" vType="ev1" speedFactor="1.00" vaporized=""/>
    <tripinfo id="vertic.2" depart="8.00" departLane="bottom1B0_0" departPos="5.10" departSpeed="13.89" departDelay="0.00" arrival="42.50" arrivalLane="B1top1_0" arrivalPos="182.80" arrivalSpeed="14.00" duration="34.50" routeLength="484.90" waitingTime="0.00" waitingCount="0" stopTime="0.00" timeLoss="0.16" rerouteNo="0" devices="tripinfo_vertic.2" vType="DEFAULT_VEHTYPE" speedFactor="1.02" vaporized=""/>
    <tripinfo id="vertic.3" depart="12.00" departLane="bottom0A0_0" departPos="5.10" departSpeed="13.89" departDelay="0.00" arrival="43.30" arrivalLane="A1top0_0" arrivalPos="182.80" arrivalSpeed="15.55" duration="31.30" routeLength="484.90" waitingTime="0.00" waitingCount="0" stopTime="0.00" timeLoss="0.18" rerouteNo="0" devices="tripinfo_vertic.3" vType="DEFAULT_VEHTYPE" speedFactor="1.12" vaporized=""/>
    <tripinfo id="vertic.4" depart="16.00" departLane="bottom1B0_0" departPos="5.10" departSpeed="13.89" departDelay="0.00" arrival="49.70" arrivalLane="B1top1_0" arrivalPos="182.80" arrivalSpeed="14.35" duration="33.70" routeLength="484.90" waitingTime="0.00" waitingCount="0" stopTime="0.00" timeLoss="0.15" rerouteNo="0" devices="tripinfo_vertic.4" vType="DEFAULT_VEHTYPE" speedFactor="1.04" vaporized=""/>
    <tripinfo id="vertic.5" depart="20.00" departLane="top1B1_0" departPos="5.10" departSpeed="13.89" departDelay="0.00" arrival="55.10" arrivalLane="B0bottom1_0" arrivalPos="182.80" arrivalSpeed="13.76" duration="35.10" routeLength="484.90" waitingTime="0.00" waitingCount="0" stopTime="0.00" timeLoss="0.16" rerouteNo="0" devices="tripinfo_vertic.5" vType="DEFAULT_VEHTYPE" speedFactor="1.00" vaporized=""/>
    <tripinfo id="vertic.6" depart="24.00" departLane="top0A1_0" departPos="5.10" departSpeed="13.89" departDelay="0.00" arrival="58.80" arrivalLane="A0bottom0_0" arrivalPos="182.80" arrivalSpeed="13.99" duration="34.80" routeLength="484.90" waitingTime="0.00" waitingCount="0" stopTime="0.00" timeLoss="0.16" rerouteNo="0" devices="tripinfo_vertic.6" vType="DEFAULT_VEHTYPE" speedFactor="1.01" vaporized=""/>
    <tripinfo id="vertic.7" depart="28.00" departLane="top0A1_0" departPos="5.10" departSpeed="13.89" departDelay="0.00" arrival="63.10" arrivalLane="A0bottom0_0" arrivalPos="182.80" arrivalSpeed="13.79" duration="35.10" routeLength="484.90" waitingTime="0.00" waitingCount="0" stopTime="0.00" timeLoss="0.17" rerouteNo="0" devices="tripinfo_vertic.7" vType="DEFAULT_VEHTYPE" speedFactor="1.00" vaporized=""/>
    <tripinfo id="vertic.8" depart="32.00" departLane="bottom0A0_0" departPos="5.10" departSpeed="13.89" departDelay="0.00" arrival="66.00" arrivalLane="A1top0_0" arrivalPos="182.80" arrivalSpeed="14.21" duration="34.00" routeLength="484.90" waitingTime="0.00" waitingCount="0" stopTime="0.00" timeLoss="0.15" rerouteNo="0" devices="tripinfo_vertic.8" vType="DEFAULT_VEHTYPE" speedFactor="1.03" vaporized=""/>
    <tripinfo id="vertic.9" depart="36.00" departLane="bottom0A0_0" departPos="5.10" departSpeed="13.89" departDelay="0.00" arrival="67.40" arrivalLane="A1top0_0" arrivalPos="182.80" arrivalSpeed="16.35" duration="31.40" routeLength="484.90" waitingTime="0.00" waitingCount="0" stopTime="0.00" timeLoss="1.77" rerouteNo="0" devices="tripinfo_vertic.9" vType="DEFAULT_VEHTYPE" speedFactor="1.18" vaporized=""/>
    <tripinfo id="vertic.10" depart="40.00" departLane="top0A1_0" departPos="5.10" departSpeed="13.89" departDelay="0.00" arrival="72.50" arrivalLane="A0bottom0_0" arrivalPos="182.80" arrivalSpeed="14.95" duration="32.50" routeLength="484.90" waitingTime="0.00" waitingCount="0" stopTime="0.00" timeLoss="0.15" rerouteNo="0" devices="tripinfo_vertic.10" vType="DEFAULT_VEHTYPE" speedFactor="1.08" vaporized=""/>
    <tripinfo id="vertic.11" depart="44.00" departLane="bottom1B0_0" departPos="5.10" departSpeed="13.89" departDelay="0.00" arrival="78.90" arrivalLane="B1top1_0" arrivalPos="182.80" arrivalSpeed="13.98" duration="34.90" routeLength="484.90" waitingTime="0.00" waitingCount="0" stopTime="0.00" timeLoss="0.17" rerouteNo="0" devices="tripinfo_vertic.11" vType="DEFAULT_VEHTYPE" speedFactor="1.01" vaporized=""/>
    <tripinfo id="vertic.12" depart="48.00" departLane="top1B1_0" departPos="5.10" departSpeed="13.89" departDelay="0.00" arrival="83.10" arrivalLane="B0bottom1_0" arrivalPos="182.80" arrivalSpeed="13.84" duration="35.10" routeLength="484.90" waitingTime="0.00" waitingCount="0" stopTime="0.00" timeLoss="0.17" rerouteNo="0" devices="tripinfo_vertic.12" vType="DEFAULT_VEHTYPE" speedFactor="1.00" vaporized=""/>
    <tripinfo id="vertic.13" depart="52.00" departLane="bottom0A0_0" departPos="5.10" departSpeed="13.89" departDelay="0.00" arrival="84.20" arrivalLane="A1top0_0" arrivalPos="182.80" arrivalSpeed="15.15" duration="32.20" routeLength="484.90" waitingTime="0.00" waitingCount="0" stopTime="0.00" timeLoss="0.16" rerouteNo="0" devices="tripinfo_vertic.13" vType="DEFAULT_VEHTYPE" speedFactor="1.09" vaporized=""/>
    <tripinfo id="vertic.14" depart="56.00" departLane="top1B1_0" departPos="5.10" departSpeed="13.89" departDelay="0.00" arrival="90.40" arrivalLane="B0bottom1_0" arrivalPos="182.80" arrivalSpeed="14.08" duration="34.40" routeLength="484.90" waitingTime="0.00" waitingCount="0" stopTime="0.00" timeLoss="0.16" rerouteNo="0" devices="tripinfo_vertic.14" vType="DEFAULT_VEHTYPE" speedFactor="1.02" vaporized=""/>
    <tripinfo id="vertic.15" depart="60.00" departLane="top0A1_0" departPos="5.10" departSpeed="13.89" departDelay="0.00" arrival="93.00" arrivalLane="A0bottom0_0" arrivalPos="182.80" arrivalSpeed="14.74" duration="33.00" routeLength="484.90" waitingTime="0.00" waitingCount="0" stopTime="0.00" timeLoss="0.16" rerouteNo="0" devices="tripinfo_vertic.15" vType="DEFAULT_VEHTYPE" speedFactor="1.06" vaporized=""/>
    <tripinfo id="vertic.16" depart="64.00" departLane="bottom1B0_0" departPos="5.10" departSpeed="13.89" departDelay="0.00" arrival="97.50" arrivalLane="B1top1_0" arrivalPos="182.80" arrivalSpeed="14.51" duration="33.50" routeLength="484.90" waitingTime="0.00" waitingCount="0" stopTime="0.00" timeLoss="0.16" rerouteNo="0" devices="tripinfo_vertic.16" vType="DEFAULT_VEHTYPE" speedFactor="1.05" vaporized=""/>
    <tripinfo id="vertic.17" depart="68.00" departLane="top0A1_0" departPos="5.10" departSpeed="13.89" departDelay="0.00" arrival="103.10" arrivalLane="A0bottom0_0" arrivalPos="182.80" arrivalSpeed="13.85" duration="35.10" routeLength="484.90" waitingTime="0.00" waitingCount="0" stopTime="0.00" timeLoss="0.16" rerouteNo="0" devices="tripinfo_vertic.17" vType="DEFAULT_VEHTYPE" speedFactor="1.00" vaporized=""/>
    <tripinfo id="vertic.18" depart="72.00" departLane="top1B1_0" departPos="5.10" departSpeed="13.89" departDelay="0.00" arrival="104.90" arrivalLane="B0bottom1_0" arrivalPos="182.80" arrivalSpeed="14.78" duration="32.90" routeLength="484.90" waitingTime="0.00" waitingCount="0" stopTime="0.00" timeLoss="0.16" rerouteNo="0" devices="tripinfo_vertic.18" vType="DEFAULT_VEHTYPE" speedFactor="1.07" vaporized=""/>
    <tripinfo id="vertic.19" depart="76.00" departLane="top1B1_0" departPos="5.10" departSpeed="13.89" departDelay="0.00" arrival="106.60" arrivalLane="B0bottom1_0" arrivalPos="182.80" arrivalSpeed="15.94" duration="30.60" routeLength="484.90" waitingTime="0.00" waitingCount="0" stopTime="0.00" timeLoss="0.19" rerouteNo="0" devices="tripinfo_vertic.19" vType="DEFAULT_VEHTYPE" speedFactor="1.15" vaporized=""/>
    <tripinfo id="vertic.20" depart="80.00" departLane="top1B1_0" departPos="5.10" departSpeed="13.89" departDelay="0.00" arrival="115.10" arrivalLane="B0bottom1_0" arrivalPos="182.80" arrivalSpeed="13.82" duration="35.10" routeLength="484.90" waitingTime="0.00" waitingCount="0" stopTime="0.00" timeLoss="0.16" rerouteNo="0" devices="tripinfo_vertic.20" vType="DEFAULT_VEHTYPE" speedFactor="1.00" vaporized=""/>
    <tripinfo id="vertic.21" depart="84.00" departLane="top1B1_0" departPos="5.10" departSpeed="13.89" departDelay="0.00" arrival="118.60" arrivalLane="B0bottom1_0" arrivalPos="182.80" arrivalSpeed="14.08" duration="34.60" routeLength="484.90" waitingTime="0.00" waitingCount="0" stopTime="0.00" timeLoss="0.16" rerouteNo="0" devices="tripinfo_vertic.21" vType="DEFAULT_VEHTYPE" speedFactor="1.02" vaporized=""/>
    <tripinfo id="vertic.22" depart="88.00" departLane="bottom0A0_0" departPos="5.10" departSpeed="13.89" departDelay="0.00" arrival="123.10" arrivalLane="A1top0_0" arrivalPos="182.80" arrivalSpeed="13.87" duration="35.10" routeLength="484.90" waitingTime="0.00" waitingCount="0" stopTime="0.00" timeLoss="0.17" rerouteNo="0" devices="tripinfo_vertic.22" vType="DEFAULT_VEHTYPE" speedFactor="1.00" vaporized=""/>
    <tripinfo id="vertic.23" depart="92.00" departLane="bottom0A0_0" departPos="5.10" departSpeed="13.89" departDelay="0.00" arrival="124.70" arrivalLane="A1top0_0" arrivalPos="182.80" arrivalSpeed="14.95" duration="32.70" routeLength="484.90" waitingTime="0.00" waitingCount="0" stopTime="0.00" timeLoss="0.31" rerouteNo="0" devices="tripinfo_vertic.23" vType="DEFAULT_VEHTYPE" speedFactor="1.08" vaporized=""/>
    <tripinfo id="vertic.24" depart="96.00" departLane="bottom0A0_0" departPos="5.10" departSpeed="13.89" departDelay="0.00" arrival="127.40" arrivalLane="A1top0_0" arrivalPos="182.80" arrivalSpeed="15.53" duration="31.40" routeLength="484.90" waitingTime="0.00" waitingCount="0" stopTime="0.00" timeLoss="0.17" rerouteNo="0" devices="tripinfo_vertic.24" vType="DEFAULT_VEHTYPE" speedFactor="1.12" vaporized=""/>
    <tripinfo id="vertic.25" depart="100.00" departLane="top1B1_0" departPos="5.10" departSpeed="13.89" departDelay="0.00" arrival="132.50" arrivalLane="B0bottom1_0" arrivalPos="182.80" arrivalSpeed="15.00" duration="32.50" routeLength="484.90" waitingTime="0.00" waitingCount="0" stopTime="0.00" timeLoss="0.15" rerouteNo="0" devices="tripinfo_vertic.25" vType="DEFAULT_VEHTYPE" speedFactor="1.08" vaporized=""/>
    <tripinfo id="vertic.26" depart="104.00" departLane="bottom0A0_0" departPos="5.10" departSpeed="13.89" departDelay="0.00" arrival="136.50" arrivalLane="A1top0_0" arrivalPos="182.80" arrivalSpeed="14.97" duration="32.50" routeLength="484.90" waitingTime="0.00" waitingCount="0" stopTime="0.00" timeLoss="0.15" rerouteNo="0" devices="tripinfo_vertic.26" vType="DEFAULT_VEHTYPE" speedFactor="1.08" vaporized=""/>
    <tripinfo id="vertic.27" depart="108.00" departLane="top0A1_0" departPos="5.10" departSpeed="13.89" departDelay="0.00" arrival="143.10" arrivalLane="A0bottom0_0" arrivalPos="182.80" arrivalSpeed="13.80" duration="35.10" routeLength="484.90" waitingTime="0.00" waitingCount="0" stopTime="0.00" timeLoss="0.18" rerouteNo="0" devices="tripinfo_vertic.27" vType="DEFAULT_VEHTYPE" speedFactor="1.00" vaporized=""/>
    <tripinfo id="vertic.28" depart="112.00" departLane="top1B1_0" departPos="5.10" departSpeed="13.89" departDelay="0.00" arrival="145.40" arrivalLane="B0bottom1_0" arrivalPos="182.80" arrivalSpeed="14.53" duration="33.40" routeLength="484.90" waitingTime="0.00" waitingCount="0" stopTime="0.00" timeLoss="0.16" rerouteNo="0" devices="tripinfo_vertic.28" vType="DEFAULT_VEHTYPE" speedFactor="1.05" vaporized=""/>
    <tripinfo id="vertic.29" depart="116.00" departLane="top0A1_0" departPos="5.10" departSpeed="13.89" departDelay="0.00" arrival="151.10" arrivalLane="A0bottom0_0" arrivalPos="182.80" arrivalSpeed="13.80" duration="35.10" routeLength="484.90" waitingTime="0.00" waitingCount="0" stopTime="0.00" timeLoss="0.17" rerouteNo="0" devices="tripinfo_vertic.29" vType="DEFAULT_VEHTYPE" speedFactor="1.00" vaporized=""/>
    <tripinfo id="vertic.30" depart="120.00" departLane="bottom0A0_0" departPos="5.10" departSpeed="13.89" departDelay="0.00" arrival="154.50" arrivalLane="A1top0_0" arrivalPos="182.80" arrivalSpeed="14.01" duration="34.50" routeLength="484.90" waitingTime="0.00" waitingCount="0" stopTime="0.00" timeLoss="0.16" rerouteNo="0" devices="tripinfo_vertic.30" vType="DEFAULT_VEHTYPE" speedFactor="1.02" vaporized=""/>
    <tripinfo id="vertic.31" depart="124.00" departLane="bottom1B0_0" departPos="5.10" departSpeed="13.89" departDelay="0.00" arrival="157.00" arrivalLane="B1top1_0" arrivalPos="182.80" arrivalSpeed="14.68" duration="33.00" routeLength="484.90" waitingTime="0.00" waitingCount="0" stopTime="0.00" timeLoss="0.16" rerouteNo="0" devices="tripinfo_vertic.31" vType="DEFAULT_VEHTYPE" speedFactor="1.06" vaporized=""/>
    <tripinfo id="vertic.33" depart="132.00" departLane="bottom0A0_0" departPos="5.10" departSpeed="13.89" departDelay="0.00" arrival="160.30" arrivalLane="A1top0_0" arrivalPos="182.80" arrivalSpeed="17.33" duration="28.30" routeLength="484.90" waitingTime="0.00" waitingCount="0" stopTime="0.00" timeLoss="0.27" rerouteNo="0" devices="tripinfo_vertic.33" vType="DEFAULT_VEHTYPE" speedFactor="1.25" vaporized=""/>
    <tripinfo id="vertic.32" depart="128.00" departLane="bottom1B0_0" departPos="5.10" departSpeed="13.89" departDelay="0.00" arrival="160.60" arrivalLane="B1top1_0" arrivalPos="182.80" arrivalSpeed="14.88" duration="32.60" routeLength="484.90" waitingTime="0.00" waitingCount="0" stopTime="0.00" timeLoss="0.15" rerouteNo="0" devices="tripinfo_vertic.32" vType="DEFAULT_VEHTYPE" speedFactor="1.08" vaporized=""/>
    <tripinfo id="vertic.34" depart="136.00" departLane="bottom1B0_0" departPos="5.10" departSpeed="13.89" departDelay="0.00" arrival="170.40" arrivalLane="B1top1_0" arrivalPos="182.80" arrivalSpeed="14.06" duration="34.40" routeLength="484.90" waitingTime="0.00" waitingCount="0" stopTime="0.00" timeLoss="0.16" rerouteNo="0" devices="tripinfo_vertic.34" vType="DEFAULT_VEHTYPE" speedFactor="1.02" vaporized=""/>
    <tripinfo id="vertic.35" depart="140.00" departLane="bottom1B0_0" departPos="5.10" departSpeed="13.89" departDelay="0.00" arrival="173.00" arrivalLane="B1top1_0" arrivalPos="182.80" arrivalSpeed="14.74" duration="33.00" routeLength="484.90" waitingTime="0.00" waitingCount="0" stopTime="0.00" timeLoss="0.15" rerouteNo="0" devices="tripinfo_vertic.35" vType="DEFAULT_VEHTYPE" speedFactor="1.06" vaporized=""/>
    <tripinfo id="vertic.36" depart="144.00" departLane="bottom1B0_0" departPos="5.10" departSpeed="13.89" departDelay="0.00" arrival="175.10" arrivalLane="B1top1_0" arrivalPos="182.80" arrivalSpeed="15.64" duration="31.10" routeLength="484.90" waitingTime="0.00" waitingCount="0" stopTime="0.00" timeLoss="0.18" rerouteNo="0" devices="tripinfo_vertic.36" vType="DEFAULT_VEHTYPE" speedFactor="1.13" vaporized=""/>
    <tripinfo id="horiz.0" depart="0.00" departLane="right1B1_0" departPos="5.10" departSpeed="13.89" departDelay="0.00" arrival="-1.00" arrivalLane="" arrivalPos="-1.00" arrivalSpeed="-1.00" duration="180.00" routeLength="186.70" waitingTime="164.90" waitingCount="1" stopTime="0.00" timeLoss="166.46" rerouteNo="0" devices="tripinfo_horiz.0" vType="DEFAULT_VEHTYPE" speedFactor="1.00" vaporized="end"/>
    <tripinfo id="emergency2.0" depart="0.00" departLane="left1A1_0" departPos="6.60" departSpeed="0.00" departDelay="0.00" arrival="-1.00" arrivalLane="" arrivalPos="-1.00" arrivalSpeed="-1.00" duration="180.00" routeLength="185.20" waitingTime="161.50" waitingCount="1" stopTime="0.00" timeLoss="166.57" rerouteNo="0" devices="tripinfo_emergency2.0" vType="ev2" speedFactor="1.00" vaporized="end"/>
    <tripinfo id="emergency3.0" depart="0.70" departLane="right1B1_0" departPos="6.60" departSpeed="0.00" departDelay="0.70" arrival="-1.00" arrivalLane="" arrivalPos="-1.00" arrivalSpeed="-1.00" duration="179.30" routeLength="177.70" waitingTime="157.90" waitingCount="1" stopTime="0.00" timeLoss="166.41" rerouteNo="0" devices="tripinfo_emergency3.0" vType="ev3" speedFactor="1.00" vaporized="end"/>
    <tripinfo id="horiz.1" depart="2.00" departLane="right0B0_0" departPos="5.10" departSpeed="13.89" departDelay="0.00" arrival="-1.00" arrivalLane="" arrivalPos="-1.00" arrivalSpeed="-1.00" duration="178.00" routeLength="186.70" waitingTime="162.90" waitingCount="1" stopTime="0.00" timeLoss="164.46" rerouteNo="0" devices="tripinfo_horiz.1" vType="DEFAULT_VEHTYPE" speedFactor="1.00" vaporized="end"/>
    <tripinfo id="horiz.2" depart="4.00" departLane="right0B0_0" departPos="5.10" departSpeed="13.89" departDelay="0.00" arrival="-1.00" arrivalLane="" arrivalPos="-1.00" arrivalSpeed="-1.00" duration="176.00" routeLength="179.20" waitingTime="157.80" waitingCount="1" stopTime="0.00" timeLoss="163.00" rerouteNo="0" devices="tripinfo_horiz.2" vType="DEFAULT_VEHTYPE" speedFactor="1.00" vaporized="end"/>
    <tripinfo id="horiz.3" depart="6.00" departLane="left0A0_0" departPos="5.10" departSpeed="13.89" departDelay="0.00" arrival="-1.00" arrivalLane="" arrivalPos="-1.00" arrivalSpeed="-1.00" duration="174.00" routeLength="186.70" waitingTime="159.00" waitingCount="1" stopTime="0.00" timeLoss="160.60" rerouteNo="0" devices="tripinfo_horiz.3" vType="DEFAULT_VEHTYPE" speedFactor="1.01" vaporized="end"/>
    <tripinfo id="horiz.4" depart="8.00" departLane="right0B0_0" departPos="5.10" departSpeed="13.89" departDelay="0.00" arrival="-1.00" arrivalLane="" arrivalPos="-1.00" arrivalSpeed="-1.00" duration="172.00" routeLength="171.70" waitingTime="154.20" waitingCount="1" stopTime="0.00" timeLoss="159.70" rerouteNo="0" devices="tripinfo_horiz.4" vType="DEFAULT_VEHTYPE" speedFactor="1.01" vaporized="end"/>
    <tripinfo id="horiz.5" depart="10.00" departLane="right0B0_0" departPos="5.10" departSpeed="13.89" departDelay="0.00" arrival="-1.00" arrivalLane="" arrivalPos="-1.00" arrivalSpeed="-1.00" duration="170.00" routeLength="164.20" waitingTime="151.90" waitingCount="1" stopTime="0.00" timeLoss="159.06" rerouteNo="0" devices="tripinfo_horiz.5" vType="DEFAULT_VEHTYPE" speedFactor="1.09" vaporized="end"/>
    <tripinfo id="horiz.6" depart="12.00" departLane="right0B0_0" departPos="5.10" departSpeed="13.89" departDelay="0.00" arrival="-1.00" arrivalLane="" arrivalPos="-1.00" arrivalSpeed="-1.00" duration="168.00" routeLength="156.69" waitingTime="149.80" waitingCount="1" stopTime="0.00" timeLoss="157.13" rerouteNo="0" devices="tripinfo_horiz.6" vType="DEFAULT_VEHTYPE" speedFactor="1.05" vaporized="end"/>
    <tripinfo id="horiz.7" depart="14.00" departLane="left0A0_0" departPos="5.10" departSpeed="13.89" departDelay="0.00" arrival="-1.00" arrivalLane="" arrivalPos="-1.00" arrivalSpeed="-1.00" duration="166.00" routeLength="179.20" waitingTime="147.80" waitingCount="1" stopTime="0.00" timeLoss="153.00" rerouteNo="0" devices="tripinfo_horiz.7" vType="DEFAULT_VEHTYPE" speedFactor="1.00" vaporized="end"/>
    <tripinfo id="horiz.8" depart="16.00" departLane="right1B1_0" departPos="5.10" departSpeed="13.89" departDelay="0.00" arrival="-1.00" arrivalLane="" arrivalPos="-1.00" arrivalSpeed="-1.00" duration="164.00" routeLength="170.20" waitingTime="146.40" waitingCount="1" stopTime="0.00" timeLoss="151.65" rerouteNo="0" devices="tripinfo_horiz.8" vType="DEFAULT_VEHTYPE" speedFactor="1.00" vaporized="end"/>
    <tripinfo id="horiz.9" depart="18.00" departLane="right0B0_0" departPos="5.10" departSpeed="13.89" departDelay="0.00" arrival="-1.00" arrivalLane="" arrivalPos="-1.00" arrivalSpeed="-1.00" duration="162.00" routeLength="149.19" waitingTime="146.30" waitingCount="1" stopTime="0.00" timeLoss="152.10" rerouteNo="0" devices="tripinfo_horiz.9" vType="DEFAULT_VEHTYPE" speedFactor="1.10" vaporized="end"/>
    <tripinfo id="horiz.10" depart="20.00" departLane="left0A0_0" departPos="5.10" departSpeed="13.89" departDelay="0.00" arrival="-1.00" arrivalLane="" arrivalPos="-1.00" arrivalSpeed="-1.00" duration="160.00" routeLength="171.70" waitingTime="143.00" waitingCount="1" stopTime="0.00" timeLoss="148.48" rerouteNo="0" devices="tripinfo_horiz.10" vType="DEFAULT_VEHTYPE" speedFactor="1.08" vaporized="end"/>
    <tripinfo id="horiz.11" depart="22.00" departLane="right0B0_0" departPos="5.10" departSpeed="13.89" departDelay="0.00" arrival="-1.00" arrivalLane="" arrivalPos="-1.00" arrivalSpeed="-1.00" duration="158.00" routeLength="141.69" waitingTime="142.50" waitingCount="1" stopTime="0.00" timeLoss="147.99" rerouteNo="0" devices="tripinfo_horiz.11" vType="DEFAULT_VEHTYPE" speedFactor="1.03" vaporized="end"/>
    <tripinfo id="horiz.12" depart="24.00" departLane="right0B0_0" departPos="5.10" departSpeed="13.89" departDelay="0.00" arrival="-1.00" arrivalLane="" arrivalPos="-1.00" arrivalSpeed="-1.00" duration="156.00" routeLength="134.19" waitingTime="140.10" waitingCount="1" stopTime="0.00" timeLoss="146.61" rerouteNo="0" devices="tripinfo_horiz.12" vType="DEFAULT_VEHTYPE" speedFactor="1.04" vaporized="end"/>
    <tripinfo id="horiz.13" depart="26.00" departLane="right1B1_0" departPos="5.10" departSpeed="13.89" departDelay="0.00" arrival="-1.00" arrivalLane="" arrivalPos="-1.00" arrivalSpeed="-1.00" duration="154.00" routeLength="162.70" waitingTime="137.10" waitingCount="1" stopTime="0.00" timeLoss="142.31" rerouteNo="0" devices="tripinfo_horiz.13" vType="DEFAULT_VEHTYPE" speedFactor="1.01" vaporized="end"/>
    <tripinfo id="horiz.14" depart="28.00" departLane="left1A1_0" departPos="5.10" departSpeed="13.89" departDelay="0.00" arrival="-1.00" arrivalLane="" arrivalPos="-1.00" arrivalSpeed="-1.00" duration="152.00" routeLength="177.70" waitingTime="134.20" waitingCount="1" stopTime="0.00" timeLoss="139.50" rerouteNo="0" devices="tripinfo_horiz.14" vType="DEFAULT_VEHTYPE" speedFactor="1.03" vaporized="end"/>
    <tripinfo id="horiz.15" depart="30.00" departLane="left0A0_0" departPos="5.10" departSpeed="13.89" departDelay="0.00" arrival="-1.00" arrivalLane="" arrivalPos="-1.00" arrivalSpeed="-1.00" duration="150.00" routeLength="164.20" waitingTime="132.90" waitingCount="1" stopTime="0.00" timeLoss="138.18" rerouteNo="0" devices="tripinfo_horiz.15" vType="DEFAULT_VEHTYPE" speedFactor="1.01" vaporized="end"/>
    <tripinfo id="horiz.16" depart="32.00" departLane="left0A0_0" departPos="5.10" departSpeed="13.89" departDelay="0.00" arrival="-1.00" arrivalLane="" arrivalPos="-1.00" arrivalSpeed="-1.00" duration="148.00" routeLength="156.69" waitingTime="130.40" waitingCount="1" stopTime="0.00" timeLoss="136.62" rerouteNo="0" devices="tripinfo_horiz.16" vType="DEFAULT_VEHTYPE" speedFactor="1.00" vaporized="end"/>
    <tripinfo id="horiz.17" depart="34.00" departLane="left0A0_0" departPos="5.10" departSpeed="13.89" departDelay="0.00" arrival="-1.00" arrivalLane="" arrivalPos="-1.00" arrivalSpeed="-1.00" duration="146.00" routeLength="149.19" waitingTime="128.30" waitingCount="1" stopTime="0.00" timeLoss="136.41" rerouteNo="0" devices="tripinfo_horiz.17" vType="DEFAULT_VEHTYPE" speedFactor="1.13" vaporized="end"/>
    <tripinfo id="horiz.18" depart="36.00" departLane="left1A1_0" departPos="5.10" departSpeed="13.89" departDelay="0.00" arrival="-1.00" arrivalLane="" arrivalPos="-1.00" arrivalSpeed="-1.00" duration="144.00" routeLength="170.20" waitingTime="127.40" waitingCount="1" stopTime="0.00" timeLoss="132.98" rerouteNo="0" devices="tripinfo_horiz.18" vType="DEFAULT_VEHTYPE" speedFactor="1.12" vaporized="end"/>
    <tripinfo id="horiz.19" depart="38.00" departLane="right0B0_0" departPos="5.10" departSpeed="13.89" departDelay="0.00" arrival="-1.00" arrivalLane="" arrivalPos="-1.00" arrivalSpeed="-1.00" duration="142.00" routeLength="126.69" waitingTime="127.60" waitingCount="1" stopTime="0.00" timeLoss="132.78" rerouteNo="0" devices="tripinfo_horiz.19" vType="DEFAULT_VEHTYPE" speedFactor="1.00" vaporized="end"/>
    <tripinfo id="horiz.20" depart="40.00" departLane="right1B1_0" departPos="5.10" departSpeed="13.89" departDelay="0.00" arrival="-1.00" arrivalLane="" arrivalPos="-1.00" arrivalSpeed="-1.00" duration="140.00" routeLength="155.19" waitingTime="124.20" waitingCount="1" stopTime="0.00" timeLoss="129.67" rerouteNo="0" devices="tripinfo_horiz.20" vType="DEFAULT_VEHTYPE" speedFactor="1.09" vaporized="end"/>
    <tripinfo id="horiz.21" depart="42.00" departLane="left1A1_0" departPos="5.10" departSpeed="13.89" departDelay="0.00" arrival="-1.00" arrivalLane="" arrivalPos="-1.00" arrivalSpeed="-1.00" duration="138.00" routeLength="162.70" waitingTime="120.90" waitingCount="1" stopTime="0.00" timeLoss="126.19" rerouteNo="0" devices="tripinfo_horiz.21" vType="DEFAULT_VEHTYPE" speedFactor="1.00" vaporized="end"/>
    <tripinfo id="horiz.22" depart="44.00" departLane="left0A0_0" departPos="5.10" departSpeed="13.89" departDelay="0.00" arrival="-1.00" arrivalLane="" arrivalPos="-1.00" arrivalSpeed="-1.00" duration="136.00" routeLength="141.69" waitingTime="120.60" waitingCount="1" stopTime="0.00" timeLoss="125.90" rerouteNo="0" devices="tripinfo_horiz.22" vType="DEFAULT_VEHTYPE" speedFactor="1.02" vaporized="end"/>
    <tripinfo id="horiz.23" depart="46.00" departLane="left1A1_0" departPos="5.10" departSpeed="13.89" departDelay="0.00" arrival="-1.00" arrivalLane="" arrivalPos="-1.00" arrivalSpeed="-1.00" duration="134.00" routeLength="155.19" waitingTime="117.30" waitingCount="1" stopTime="0.00" timeLoss="122.73" rerouteNo="0" devices="tripinfo_horiz.23" vType="DEFAULT_VEHTYPE" speedFactor="1.00" vaporized="end"/>
    <tripinfo id="horiz.24" depart="48.00" departLane="left1A1_0" departPos="5.10" departSpeed="13.89" departDelay="0.00" arrival="-1.00" arrivalLane="" arrivalPos="-1.00" arrivalSpeed="-1.00" duration="132.00" routeLength="147.69" waitingTime="114.90" waitingCount="1" stopTime="0.00" timeLoss="121.34" rerouteNo="0" devices="tripinfo_horiz.24" vType="DEFAULT_VEHTYPE" speedFactor="1.01" vaporized="end"/>
    <tripinfo id="horiz.25" depart="50.00" departLane="left1A1_0" departPos="5.10" departSpeed="13.89" departDelay="0.00" arrival="-1.00" arrivalLane="" arrivalPos="-1.00" arrivalSpeed="-1.00" duration="130.00" routeLength="140.19" waitingTime="112.80" waitingCount="1" stopTime="0.00" timeLoss="120.43" rerouteNo="0" devices="tripinfo_horiz.25" vType="DEFAULT_VEHTYPE" speedFactor="1.07" vaporized="end"/>
    <tripinfo id="horiz.26" depart="52.00" departLane="right0B0_0" departPos="5.10" departSpeed="13.89" departDelay="0.00" arrival="-1.00" arrivalLane="" arrivalPos="-1.00" arrivalSpeed="-1.00" duration="128.00" routeLength="119.19" waitingTime="114.10" waitingCount="1" stopTime="0.00" timeLoss="119.32" rerouteNo="0" devices="tripinfo_horiz.26" vType="DEFAULT_VEHTYPE" speedFactor="1.00" vaporized="end"/>
    <tripinfo id="horiz.27" depart="54.00" departLane="right0B0_0" departPos="5.10" departSpeed="13.89" departDelay="0.00" arrival="-1.00" arrivalLane="" arrivalPos="-1.00" arrivalSpeed="-1.00" duration="126.00" routeLength="111.69" waitingTime="111.70" waitingCount="1" stopTime="0.00" timeLoss="117.86" rerouteNo="0" devices="tripinfo_horiz.27" vType="DEFAULT_VEHTYPE" speedFactor="1.00" vaporized="end"/>