<?xml version="1.0" encoding="UTF-8"?>

<!-- generated on 2025-11-13T06:16:12.186962+01:00 by Eclipse SUMO sumo 1.25.0
<sumoConfiguration xmlns:xsi="http://www.w3.org/2001/XMLSchema-instance" xsi:noNamespaceSchemaLocation="http://sumo.dlr.de/xsd/sumoConfiguration.xsd">

    <input>
        <net-file value="C:\Users\delphi\testreports\sumoExtra\git\tools\game\square/square.net.xml"/>
        <additional-files value="C:\Users\delphi\testreports\sumoExtra\git\tools\game\square/square.tll.xml,C:\Users\delphi\testreports\sumoExtra\git\tools\game\square/square.poi.xml,C:\Users\delphi\testreports\sumoExtra\git\tools\game\square/square.rou.xml,C:\Users\delphi\testreports\sumoExtra\git\tools\game\input_additional.add.xml"/>
    </input>

    <output>
        <output-prefix value="output\square."/>
        <human-readable-time value="false"/>
        <tripinfo-output value="C:\Users\delphi\testreports\sumoExtra\git\tools\game\tripinfos.xml"/>
        <tripinfo-output.write-unfinished value="true"/>
        <tripinfo-output.write-undeparted value="true"/>
        <statistic-output value="stats.xml"/>
    </output>

    <time>
        <begin value="0"/>
        <end value="180"/>
        <step-length value=".1"/>
    </time>

    <report>
        <verbose value="false"/>
        <xml-validation value="never"/>
        <no-warnings value="true"/>
        <log value="log"/>
        <duration-log.statistics value="true"/>
        <no-step-log value="true"/>
    </report>

    <gui_only>
        <gui-settings-file value="C:\Users\delphi\testreports\sumoExtra\git\tools\game\square/settings.xml"/>
    </gui_only>

</sumoConfiguration>
-->

<meandata xmlns:xsi="http://www.w3.org/2001/XMLSchema-instance" xsi:noNamespaceSchemaLocation="http://sumo.dlr.de/xsd/meandata_file.xsd">
    <interval begin="0.00" end="180.00" id="dump">
        <edge id="A0A1" sampledSeconds="80.92" traveltime="5.83" overlapTraveltime="6.23" density="4.92" overlapDensity="5.25" laneDensity="4.92" occupancy="2.59" waitingTime="0.00" timeLoss="1.04" speed="14.59" speedRelative="1.05" departed="0" arrived="0" entered="13" left="13" laneChangedFrom="0" laneChangedTo="0" flow="258.26"/>
        <edge id="A0bottom0" sampledSeconds="101.84" traveltime="13.40" overlapTraveltime="13.75" density="2.93" overlapDensity="2.93" laneDensity="2.93" occupancy="1.45" waitingTime="0.00" timeLoss="0.46" speed="14.38" speedRelative="1.04" departed="0" arrived="8" entered="8" left="0" laneChangedFrom="0" laneChangedTo="0" flow="151.95"/>
        <edge id="A1A0" sampledSeconds="50.40" traveltime="5.95" overlapTraveltime="6.30" density="3.09" overlapDensity="3.27" laneDensity="3.09" occupancy="1.55" waitingTime="0.00" timeLoss="0.24" speed="14.38" speedRelative="1.04" departed="0" arrived="0" entered="8" left="8" laneChangedFrom="0" laneChangedTo="0" flow="160.00"/>
        <edge id="A1B1" sampledSeconds="49.00" traveltime="49.58" overlapTraveltime="53.34" density="3.18" overlapDensity="3.18" laneDensity="3.18" occupancy="2.05" waitingTime="40.30" timeLoss="42.91" speed="1.73" speedRelative="0.12" departed="0" arrived="0" entered="1" left="0" laneChangedFrom="0" laneChangedTo="0" flow="19.77"/>
        <edge id="A1top0" sampledSeconds="139.34" traveltime="13.02" overlapTraveltime="13.37" density="4.01" overlapDensity="4.02" laneDensity="4.01" occupancy="2.04" waitingTime="0.00" timeLoss="2.03" speed="14.81" speedRelative="1.07" departed="0" arrived="11" entered="12" left="0" laneChangedFrom="0" laneChangedTo="0" flow="213.94"/>
        <edge id="B0B1" sampledSeconds="69.03" traveltime="5.83" overlapTraveltime="6.17" density="4.24" overlapDensity="4.48" laneDensity="4.24" occupancy="2.11" waitingTime="0.00" timeLoss="0.31" speed="14.69" speedRelative="1.06" departed="0" arrived="0" entered="12" left="11" laneChangedFrom="0" laneChangedTo="0" flow="224.12"/>
        <edge id="B0bottom1" sampledSeconds="132.63" traveltime="13.36" overlapTraveltime="13.71" density="3.82" overlapDensity="3.82" laneDensity="3.82" occupancy="1.88" waitingTime="0.00" timeLoss="0.60" speed="14.43" speedRelative="1.04" departed="0" arrived="9" entered="11" left="0" laneChangedFrom="0" laneChangedTo="0" flow="198.55"/>
        <edge id="B1B0" sampledSeconds="69.20" traveltime="5.94" overlapTraveltime="6.29" density="4.24" overlapDensity="4.49" laneDensity="4.24" occupancy="2.12" waitingTime="0.00" timeLoss="0.31" speed="14.40" speedRelative="1.04" departed="0" arrived="0" entered="11" left="11" laneChangedFrom="0" laneChangedTo="0" flow="220.00"/>
        <edge id="B1top1" sampledSeconds="127.08" traveltime="13.22" overlapTraveltime="13.56" density="3.66" overlapDensity="3.66" laneDensity="3.66" occupancy="1.80" waitingTime="0.00" timeLoss="0.57" speed="14.58" speedRelative="1.05" departed="0" arrived="10" entered="11" left="0" laneChangedFrom="0" laneChangedTo="0" flow="192.27"/>
        <edge id="bottom0A0" sampledSeconds="179.91" traveltime="13.57" overlapTraveltime="13.93" density="5.05" overlapDensity="5.18" laneDensity="5.05" occupancy="2.71" waitingTime="0.00" timeLoss="7.72" speed="14.22" speedRelative="1.02" departed="14" arrived="0" entered="0" left="13" laneChangedFrom="0" laneChangedTo="0" flow="258.67"/>
        <edge id="bottom1B0" sampledSeconds="166.14" traveltime="13.21" overlapTraveltime="13.55" density="4.67" overlapDensity="4.79" laneDensity="4.67" occupancy="2.36" waitingTime="0.00" timeLoss="0.94" speed="14.60" speedRelative="1.05" departed="13" arrived="0" entered="0" left="12" laneChangedFrom="0" laneChangedTo="0" flow="245.36"/>
        <edge id="left0A0" sampledSeconds="2305.70" traveltime="194.18" overlapTraveltime="199.34" density="66.44" overlapDensity="66.44" laneDensity="66.44" occupancy="34.02" waitingTime="2027.20" timeLoss="2146.99" speed="0.99" speedRelative="0.07" departed="20" arrived="0" entered="0" left="0" laneChangedFrom="0" laneChangedTo="0" flow="237.48"/>
        <edge id="left1A1" sampledSeconds="2031.30" traveltime="169.25" overlapTraveltime="173.75" density="58.53" overlapDensity="58.53" laneDensity="58.53" occupancy="30.04" waitingTime="1753.60" timeLoss="1872.67" speed="1.14" speedRelative="0.08" departed="21" arrived="0" entered="0" left="0" laneChangedFrom="0" laneChangedTo="0" flow="240.04"/>
        <edge id="right0B0" sampledSeconds="2135.20" traveltime="177.72" overlapTraveltime="182.33" density="61.53" overlapDensity="61.53" laneDensity="61.53" occupancy="30.76" waitingTime="1864.40" timeLoss="1974.93" speed="1.08" speedRelative="0.08" departed="21" arrived="0" entered="0" left="0" laneChangedFrom="0" laneChangedTo="0" flow="240.29"/>
        <edge id="right1B1" sampledSeconds="1817.30" traveltime="154.94" overlapTraveltime="159.08" density="52.37" overlapDensity="52.37" laneDensity="52.37" occupancy="26.96" waitingTime="1554.50" timeLoss="1662.12" speed="1.24" speedRelative="0.09" departed="20" arrived="0" entered="0" left="0" laneChangedFrom="0" laneChangedTo="0" flow="234.58"/>
        <edge id="top0A1" sampledSeconds="119.21" traveltime="13.44" overlapTraveltime="13.79" density="3.35" overlapDensity="3.44" laneDensity="3.35" occupancy="1.70" waitingTime="0.00" timeLoss="0.68" speed="14.34" speedRelative="1.03" departed="9" arrived="0" entered="0" left="8" laneChangedFrom="0" laneChangedTo="0" flow="173.24"/>
        <edge id="top1B1" sampledSeconds="156.80" traveltime="13.72" overlapTraveltime="14.08" density="4.41" overlapDensity="4.52" laneDensity="4.41" occupancy="2.27" waitingTime="0.00" timeLoss="4.18" speed="14.06" speedRelative="1.01" departed="12" arrived="0" entered="0" left="11" laneChangedFrom="0" laneChangedTo="0" flow="223.12"/>
    </interval>
    <interval begin="0.00" end="180.00" id="hbefa">
        <edge id="A0A1" sampledSeconds="75.75" CO_abs="971.20" CO2_abs="169482.30" HC_abs="6.48" PMx_abs="22.89" NOx_abs="112.08" fuel_abs="54845.66" electricity_abs="0.00"
            CO_normed="226.92" CO2_normed="39598.67" HC_normed="1.51" PMx_normed="5.35" NOx_normed="26.19" fuel_normed="12814.41" electricity_normed="0.00"
            traveltime="5.83" CO_perVeh="74.71" CO2_perVeh="13037.12" HC_perVeh="0.50" PMx_perVeh="1.76" NOx_perVeh="8.62" fuel_perVeh="4218.90" electricity_perVeh="0.00"/>
        <edge id="A0bottom0" sampledSeconds="101.84" CO_abs="1351.75" CO2_abs="212321.58" HC_abs="9.13" PMx_abs="31.66" NOx_abs="77.78" fuel_abs="68832.29" electricity_abs="0.00"
            CO_normed="140.22" CO2_normed="22025.06" HC_normed="0.95" PMx_normed="3.28" NOx_normed="8.07" fuel_normed="7140.28" electricity_normed="0.00"
            traveltime="13.40" CO_perVeh="177.92" CO2_perVeh="27945.50" HC_perVeh="1.20" PMx_perVeh="4.17" NOx_perVeh="10.24" fuel_perVeh="9059.62" electricity_perVeh="0.00"/>
        <edge id="A1A0" sampledSeconds="47.62" CO_abs="637.10" CO2_abs="98727.84" HC_abs="4.30" PMx_abs="14.50" NOx_abs="36.14" fuel_abs="32006.45" electricity_abs="0.00"
            CO_normed="148.86" CO2_normed="23067.25" HC_normed="1.00" PMx_normed="3.39" NOx_normed="8.44" fuel_normed="7478.14" electricity_normed="0.00"
            traveltime="5.95" CO_perVeh="79.64" CO2_perVeh="12340.98" HC_perVeh="0.54" PMx_perVeh="1.81" NOx_perVeh="4.52" fuel_perVeh="4000.81" electricity_perVeh="0.00"/>
        <edge id="A1B1" sampledSeconds="49.00" CO_abs="163.77" CO2_abs="122119.91" HC_abs="0.70" PMx_abs="2.06" NOx_abs="209.12" fuel_abs="39251.71" electricity_abs="0.00"
            CO_normed="38.27" CO2_normed="28532.69" HC_normed="0.16" PMx_normed="0.48" NOx_normed="48.86" fuel_normed="9170.96" electricity_normed="0.00"
            traveltime="49.58" CO_perVeh="165.71" CO2_perVeh="123564.87" HC_perVeh="0.70" PMx_perVeh="2.08" NOx_perVeh="211.60" fuel_perVeh="39716.15" electricity_perVeh="0.00"/>
        <edge id="A1top0" sampledSeconds="139.26" CO_abs="2105.91" CO2_abs="327633.53" HC_abs="14.09" PMx_abs="44.03" NOx_abs="180.41" fuel_abs="106095.54" electricity_abs="0.00"
            CO_normed="218.46" CO2_normed="33986.88" HC_normed="1.46" PMx_normed="4.57" NOx_normed="18.71" fuel_normed="11005.76" electricity_normed="0.00"
            traveltime="13.02" CO_perVeh="196.86" CO2_perVeh="30627.06" HC_perVeh="1.32" PMx_perVeh="4.12" NOx_perVeh="16.86" fuel_perVeh="9917.77" electricity_perVeh="0.00"/>
        <edge id="B0B1" sampledSeconds="65.29" CO_abs="934.04" CO2_abs="139831.79" HC_abs="6.31" PMx_abs="20.72" NOx_abs="51.35" fuel_abs="45331.87" electricity_abs="0.00"
            CO_normed="218.23" CO2_normed="32670.98" HC_normed="1.47" PMx_normed="4.84" NOx_normed="12.00" fuel_normed="10591.56" electricity_normed="0.00"
            traveltime="5.83" CO_perVeh="83.35" CO2_perVeh="12478.58" HC_perVeh="0.56" PMx_perVeh="1.85" NOx_perVeh="4.58" fuel_perVeh="4045.41" electricity_perVeh="0.00"/>
        <edge id="B0bottom1" sampledSeconds="132.63" CO_abs="1826.55" CO2_abs="281560.77" HC_abs="12.33" PMx_abs="41.37" NOx_abs="103.10" fuel_abs="91278.81" electricity_abs="0.00"
            CO_normed="189.48" CO2_normed="29207.55" HC_normed="1.28" PMx_normed="4.29" NOx_normed="10.69" fuel_normed="9468.76" electricity_normed="0.00"
            traveltime="13.36" CO_perVeh="183.99" CO2_perVeh="28361.27" HC_perVeh="1.24" PMx_perVeh="4.17" NOx_perVeh="10.38" fuel_perVeh="9194.40" electricity_perVeh="0.00"/>
        <edge id="B1B0" sampledSeconds="65.38" CO_abs="918.19" CO2_abs="139246.82" HC_abs="6.19" PMx_abs="19.97" NOx_abs="50.97" fuel_abs="45142.21" electricity_abs="0.00"
            CO_normed="214.53" CO2_normed="32534.30" HC_normed="1.45" PMx_normed="4.67" NOx_normed="11.91" fuel_normed="10547.25" electricity_normed="0.00"
            traveltime="5.94" CO_perVeh="83.47" CO2_perVeh="12658.80" HC_perVeh="0.56" PMx_perVeh="1.82" NOx_perVeh="4.63" fuel_perVeh="4103.84" electricity_perVeh="0.00"/>
        <edge id="B1top1" sampledSeconds="127.08" CO_abs="1797.16" CO2_abs="269440.43" HC_abs="12.13" PMx_abs="39.26" NOx_abs="98.79" fuel_abs="87349.49" electricity_abs="0.00"
            CO_normed="186.43" CO2_normed="27950.25" HC_normed="1.26" PMx_normed="4.07" NOx_normed="10.25" fuel_normed="9061.15" electricity_normed="0.00"
            traveltime="13.22" CO_perVeh="186.94" CO2_perVeh="28027.64" HC_perVeh="1.26" PMx_perVeh="4.08" NOx_perVeh="10.28" fuel_perVeh="9086.24" electricity_perVeh="0.00"/>
        <edge id="bottom0A0" sampledSeconds="175.31" CO_abs="2892.58" CO2_abs="527922.60" HC_abs="18.49" PMx_abs="55.44" NOx_abs="411.30" fuel_abs="170661.37" electricity_abs="0.00"
            CO_normed="300.06" CO2_normed="54763.76" HC_normed="1.92" PMx_normed="5.75" NOx_normed="42.67" fuel_normed="17703.46" electricity_normed="0.00"
            traveltime="13.57" CO_perVeh="223.88" CO2_perVeh="40860.08" HC_perVeh="1.43" PMx_perVeh="4.29" NOx_perVeh="31.83" fuel_perVeh="13208.82" electricity_perVeh="0.00"/>
        <edge id="bottom1B0" sampledSeconds="162.04" CO_abs="2654.03" CO2_abs="377263.96" HC_abs="17.85" PMx_abs="51.71" NOx_abs="138.23" fuel_abs="122304.43" electricity_abs="0.00"
            CO_normed="275.31" CO2_normed="39135.27" HC_normed="1.85" PMx_normed="5.36" NOx_normed="14.34" fuel_normed="12687.18" electricity_normed="0.00"
            traveltime="13.21" CO_perVeh="216.36" CO2_perVeh="30754.41" HC_perVeh="1.46" PMx_perVeh="4.22" NOx_perVeh="11.27" fuel_perVeh="9970.21" electricity_perVeh="0.00"/>
        <edge id="left0A0" sampledSeconds="2305.70" CO_abs="2209.12" CO2_abs="3527940.08" HC_abs="13.35" PMx_abs="34.94" NOx_abs="1938.89" fuel_abs="1142591.21" electricity_abs="0.00"
            CO_normed="229.16" CO2_normed="365968.89" HC_normed="1.39" PMx_normed="3.62" NOx_normed="201.13" fuel_normed="118526.06" electricity_normed="0.00"
            traveltime="194.18" CO_perVeh="186.05" CO2_perVeh="297117.18" HC_perVeh="1.12" PMx_perVeh="2.94" NOx_perVeh="163.29" fuel_perVeh="96227.11" electricity_perVeh="0.00"/>
        <edge id="left1A1" sampledSeconds="2031.30" CO_abs="2306.10" CO2_abs="3092696.20" HC_abs="14.27" PMx_abs="34.95" NOx_abs="1751.45" fuel_abs="1001541.23" electricity_abs="0.00"
            CO_normed="239.22" CO2_normed="320819.11" HC_normed="1.48" PMx_normed="3.63" NOx_normed="181.69" fuel_normed="103894.32" electricity_normed="0.00"
            traveltime="169.25" CO_perVeh="192.14" CO2_perVeh="257683.81" HC_perVeh="1.19" PMx_perVeh="2.91" NOx_perVeh="145.93" fuel_perVeh="83448.53" electricity_perVeh="0.00"/>
        <edge id="right0B0" sampledSeconds="2135.20" CO_abs="1771.15" CO2_abs="3124464.79" HC_abs="11.88" PMx_abs="32.57" NOx_abs="1250.00" fuel_abs="1012933.32" electricity_abs="0.00"
            CO_normed="183.73" CO2_normed="324114.60" HC_normed="1.23" PMx_normed="3.38" NOx_normed="129.67" fuel_normed="105076.07" electricity_normed="0.00"
            traveltime="177.72" CO_perVeh="147.42" CO2_perVeh="260055.75" HC_perVeh="0.99" PMx_perVeh="2.71" NOx_perVeh="104.04" fuel_perVeh="84308.56" electricity_perVeh="0.00"/>
        <edge id="right1B1" sampledSeconds="1817.30" CO_abs="2375.80" CO2_abs="2790043.11" HC_abs="14.76" PMx_abs="35.19" NOx_abs="1614.86" fuel_abs="903450.97" electricity_abs="0.00"
            CO_normed="246.45" CO2_normed="289423.56" HC_normed="1.53" PMx_normed="3.65" NOx_normed="167.52" fuel_normed="93718.98" electricity_normed="0.00"
            traveltime="154.94" CO_perVeh="202.56" CO2_perVeh="237874.93" HC_perVeh="1.26" PMx_perVeh="3.00" NOx_perVeh="137.68" fuel_perVeh="77026.89" electricity_perVeh="0.00"/>
        <edge id="top0A1" sampledSeconds="116.43" CO_abs="1790.33" CO2_abs="262357.44" HC_abs="12.04" PMx_abs="36.07" NOx_abs="95.97" fuel_abs="85053.16" electricity_abs="0.00"
            CO_normed="185.72" CO2_normed="27215.50" HC_normed="1.25" PMx_normed="3.74" NOx_normed="9.96" fuel_normed="8822.94" electricity_normed="0.00"
            traveltime="13.44" CO_perVeh="206.70" CO2_perVeh="30290.65" HC_perVeh="1.39" PMx_perVeh="4.16" NOx_perVeh="11.08" fuel_perVeh="9819.87" electricity_perVeh="0.00"/>
        <edge id="top1B1" sampledSeconds="152.98" CO_abs="2260.68" CO2_abs="385370.67" HC_abs="14.80" PMx_abs="47.07" NOx_abs="216.70" fuel_abs="124755.24" electricity_abs="0.00"
            CO_normed="234.51" CO2_normed="39976.21" HC_normed="1.54" PMx_normed="4.88" NOx_normed="22.48" fuel_normed="12941.41" electricity_normed="0.00"
            traveltime="13.72" CO_perVeh="202.77" CO2_perVeh="34564.81" HC_perVeh="1.33" PMx_perVeh="4.22" NOx_perVeh="19.44" fuel_perVeh="11189.59" electricity_perVeh="0.00"/>
    </interval>
</meandata>
