<?xml version="1.0" encoding="UTF-8"?>

<!-- generated on 2025-11-13 10:34:51 by Eclipse SUMO libsumo Version 1.24.0
<libsumoConfiguration xmlns:xsi="http://www.w3.org/2001/XMLSchema-instance" xsi:noNamespaceSchemaLocation="http://sumo.dlr.de/xsd/libsumoConfiguration.xsd">

    <input>
        <net-file value="/home/julesbompard/Documents/Projets/sumo-experiments/src/sumo_experiments/preset_networks/bologna/acosta/acosta_buslanes.net.xml"/>
        <route-files value="/home/julesbompard/Documents/Projets/sumo-experiments/src/sumo_experiments/preset_networks/bologna/acosta/acosta_31869.rou.xml,/home/julesbompard/Documents/Projets/sumo-experiments/src/sumo_experiments/preset_networks/bologna/acosta/acosta_busses.rou.xml"/>
        <additional-files value="/home/julesbompard/Documents/Projets/sumo-experiments/src/sumo_experiments/preset_networks/bologna/acosta/acosta_tls.add.xml,/home/julesbompard/Documents/Projets/sumo-experiments/src/sumo_experiments/preset_networks/bologna/acosta/acosta_vtypes.add.xml,/home/julesbompard/Documents/Projets/sumo-experiments/src/sumo_experiments/preset_networks/bologna/acosta/acosta_detectors.add.xml,/home/julesbompard/Documents/Projets/sumo-experiments/src/sumo_experiments/preset_networks/bologna/acosta/acosta_bus_stops.add.xml"/>
    </input>

    <output>
        <tripinfo-output value="/home/julesbompard/Documents/Projets/sumo-experiments/src/sumo_experiments/preset_networks/bologna/acosta/tripinfos.xml"/>
    </output>

    <processing>
        <threads value="1"/>
        <time-to-teleport value="150"/>
    </processing>

    <report>
        <no-warnings value="true"/>
        <log value="/home/julesbompard/Documents/Projets/sumo-experiments/src/sumo_experiments/preset_networks/bologna/acosta/sumo_log.txt"/>
        <no-step-log value="true"/>
    </report>

    <random_number>
        <seed value="42"/>
    </random_number>

    <gui_only>
        <gui-settings-file value="/home/julesbompard/Documents/Projets/sumo-experiments/src/sumo_experiments/preset_networks/bologna/acosta/settings.gui.xml"/>
    </gui_only>

</libsumoConfiguration>
-->

<detector xmlns:xsi="http://www.w3.org/2001/XMLSchema-instance" xsi:noNamespaceSchemaLocation="http://sumo.dlr.de/xsd/det_e2_file.xsd">
   <interval begin="0.00" end="4675.00" id="34_1" sampledSeconds="6102.15" nVehEntered="341" nVehLeft="341" nVehSeen="341" meanSpeed="1.39" meanTimeLoss="15.93" meanOccupancy="27.20" maxOccupancy="82.38" meanMaxJamLengthInVehicles="1.04" meanMaxJamLengthInMeters="5.33" maxJamLengthInVehicles="4" maxJamLengthInMeters="20.00" jamLengthInVehiclesSum="4866" jamLengthInMetersSum="24913.96" meanHaltingDuration="43.31" maxHaltingDuration="93.00" haltingDurationSum="4981.00" meanIntervalHaltingDuration="43.31" maxIntervalHaltingDuration="93.00" intervalHaltingDurationSum="4981.00" startedHalts="115.00" meanVehicleNumber="1.38" maxVehicleNumber="4" />
   <interval begin="0.00" end="4675.00" id="34_2" sampledSeconds="6513.74" nVehEntered="404" nVehLeft="404" nVehSeen="404" meanSpeed="1.54" meanTimeLoss="13.80" meanOccupancy="28.05" maxOccupancy="80.18" meanMaxJamLengthInVehicles="0.99" meanMaxJamLengthInMeters="4.97" maxJamLengthInVehicles="4" maxJamLengthInMeters="20.00" jamLengthInVehiclesSum="4638" jamLengthInMetersSum="23224.97" meanHaltingDuration="41.33" maxHaltingDuration="93.00" haltingDurationSum="4753.00" meanIntervalHaltingDuration="41.33" maxIntervalHaltingDuration="93.00" intervalHaltingDurationSum="4753.00" startedHalts="115.00" meanVehicleNumber="1.48" maxVehicleNumber="4" />
   <interval begin="0.00" end="4675.00" id="34_3" sampledSeconds="4111.94" nVehEntered="707" nVehLeft="707" nVehSeen="707" meanSpeed="3.94" meanTimeLoss="4.06" meanOccupancy="19.25" maxOccupancy="79.38" meanMaxJamLengthInVehicles="0.45" meanMaxJamLengthInMeters="2.35" maxJamLengthInVehicles="4" maxJamLengthInMeters="20.00" jamLengthInVehiclesSum="2091" jamLengthInMetersSum="11003.93" meanHaltingDuration="18.15" maxHaltingDuration="96.00" haltingDurationSum="2124.00" meanIntervalHaltingDuration="18.15" maxIntervalHaltingDuration="96.00" intervalHaltingDurationSum="2124.00" startedHalts="130.00" meanVehicleNumber="1.02" maxVehicleNumber="4" />
   <interval begin="0.00" end="4675.00" id="34_4" sampledSeconds="2879.31" nVehEntered="602" nVehLeft="602" nVehSeen="602" meanSpeed="4.57" meanTimeLoss="3.21" meanOccupancy="13.30" maxOccupancy="76.88" meanMaxJamLengthInVehicles="0.31" meanMaxJamLengthInMeters="1.62" maxJamLengthInVehicles="4" maxJamLengthInMeters="19.38" jamLengthInVehiclesSum="1468" jamLengthInMetersSum="7563.29" meanHaltingDuration="16.17" maxHaltingDuration="96.00" haltingDurationSum="1488.00" meanIntervalHaltingDuration="16.17" maxIntervalHaltingDuration="96.00" intervalHaltingDurationSum="1488.00" startedHalts="101.00" meanVehicleNumber="0.73" maxVehicleNumber="4" />
   <interval begin="0.00" end="4675.00" id="34_5" sampledSeconds="1488.27" nVehEntered="234" nVehLeft="234" nVehSeen="234" meanSpeed="3.58" meanTimeLoss="4.82" meanOccupancy="6.85" maxOccupancy="76.88" meanMaxJamLengthInVehicles="0.18" meanMaxJamLengthInMeters="0.95" maxJamLengthInVehicles="4" maxJamLengthInMeters="19.38" jamLengthInVehiclesSum="839" jamLengthInMetersSum="4438.77" meanHaltingDuration="14.70" maxHaltingDuration="73.00" haltingDurationSum="882.00" meanIntervalHaltingDuration="14.70" maxIntervalHaltingDuration="73.00" intervalHaltingDurationSum="882.00" startedHalts="61.00" meanVehicleNumber="0.36" maxVehicleNumber="4" />
   <interval begin="0.00" end="4675.00" id="34_6" sampledSeconds="973.47" nVehEntered="404" nVehLeft="404" nVehSeen="404" meanSpeed="10.30" meanTimeLoss="0.60" meanOccupancy="4.03" maxOccupancy="64.89" meanMaxJamLengthInVehicles="0.02" meanMaxJamLengthInMeters="0.07" maxJamLengthInVehicles="3" maxJamLengthInMeters="14.98" jamLengthInVehiclesSum="71" jamLengthInMetersSum="316.95" meanHaltingDuration="18.75" maxHaltingDuration="46.00" haltingDurationSum="75.00" meanIntervalHaltingDuration="18.75" maxIntervalHaltingDuration="46.00" intervalHaltingDurationSum="75.00" startedHalts="4.00" meanVehicleNumber="0.29" maxVehicleNumber="3" />
   <interval begin="0.00" end="4675.00" id="34_7" sampledSeconds="1837.84" nVehEntered="849" nVehLeft="849" nVehSeen="849" meanSpeed="11.35" meanTimeLoss="0.37" meanOccupancy="7.68" maxOccupancy="60.00" meanMaxJamLengthInVehicles="0.00" meanMaxJamLengthInMeters="0.00" maxJamLengthInVehicles="0" maxJamLengthInMeters="0.00" jamLengthInVehiclesSum="0" jamLengthInMetersSum="0.00" meanHaltingDuration="0.00" maxHaltingDuration="0.00" haltingDurationSum="0.00" meanIntervalHaltingDuration="0.00" maxIntervalHaltingDuration="0.00" intervalHaltingDurationSum="0.00" startedHalts="0.00" meanVehicleNumber="0.56" maxVehicleNumber="3" />
   <interval begin="0.00" end="4675.00" id="34_8" sampledSeconds="1020.57" nVehEntered="573" nVehLeft="573" nVehSeen="573" meanSpeed="12.83" meanTimeLoss="0.16" meanOccupancy="4.35" maxOccupancy="37.09" meanMaxJamLengthInVehicles="0.00" meanMaxJamLengthInMeters="0.00" maxJamLengthInVehicles="0" maxJamLengthInMeters="0.00" jamLengthInVehiclesSum="0" jamLengthInMetersSum="0.00" meanHaltingDuration="0.00" maxHaltingDuration="0.00" haltingDurationSum="0.00" meanIntervalHaltingDuration="0.00" maxIntervalHaltingDuration="0.00" intervalHaltingDurationSum="0.00" startedHalts="0.00" meanVehicleNumber="0.33" maxVehicleNumber="2" />
   <interval begin="0.00" end="4675.00" id="34_9" sampledSeconds="53.12" nVehEntered="71" nVehLeft="71" nVehSeen="71" meanSpeed="13.78" meanTimeLoss="0.07" meanOccupancy="0.09" maxOccupancy="25.00" meanMaxJamLengthInVehicles="0.00" meanMaxJamLengthInMeters="0.00" maxJamLengthInVehicles="0" maxJamLengthInMeters="0.00" jamLengthInVehiclesSum="0" jamLengthInMetersSum="0.00" meanHaltingDuration="0.00" maxHaltingDuration="0.00" haltingDurationSum="0.00" meanIntervalHaltingDuration="0.00" maxIntervalHaltingDuration="0.00" intervalHaltingDurationSum="0.00" startedHalts="0.00" meanVehicleNumber="0.02" maxVehicleNumber="1" />
   <interval begin="0.00" end="4675.00" id="34_10" sampledSeconds="6101.30" nVehEntered="341" nVehLeft="341" nVehSeen="341" meanSpeed="1.39" meanTimeLoss="15.93" meanOccupancy="27.22" maxOccupancy="82.46" meanMaxJamLengthInVehicles="1.04" meanMaxJamLengthInMeters="5.33" maxJamLengthInVehicles="4" maxJamLengthInMeters="19.98" jamLengthInVehiclesSum="4866" jamLengthInMetersSum="24913.90" meanHaltingDuration="43.31" maxHaltingDuration="93.00" haltingDurationSum="4981.00" meanIntervalHaltingDuration="43.31" maxIntervalHaltingDuration="93.00" intervalHaltingDurationSum="4981.00" startedHalts="115.00" meanVehicleNumber="1.38" maxVehicleNumber="4" />
   <interval begin="0.00" end="4675.00" id="34_11" sampledSeconds="6303.99" nVehEntered="341" nVehLeft="341" nVehSeen="341" meanSpeed="10.00" meanTimeLoss="5.17" meanOccupancy="3.49" maxOccupancy="22.91" meanMaxJamLengthInVehicles="0.24" meanMaxJamLengthInMeters="1.34" maxJamLengthInVehicles="8" maxJamLengthInMeters="47.48" jamLengthInVehiclesSum="1143" jamLengthInMetersSum="6256.58" meanHaltingDuration="17.78" maxHaltingDuration="54.00" haltingDurationSum="1209.00" meanIntervalHaltingDuration="17.78" maxIntervalHaltingDuration="54.00" intervalHaltingDurationSum="1209.00" startedHalts="74.00" meanVehicleNumber="1.42" maxVehicleNumber="9" />
   <interval begin="0.00" end="4675.00" id="34_12" sampledSeconds="15924.53" nVehEntered="404" nVehLeft="404" nVehSeen="404" meanSpeed="3.36" meanTimeLoss="29.30" meanOccupancy="12.65" maxOccupancy="68.61" meanMaxJamLengthInVehicles="1.97" meanMaxJamLengthInMeters="11.79" maxJamLengthInVehicles="18" maxJamLengthInMeters="111.60" jamLengthInVehiclesSum="9224" jamLengthInMetersSum="55130.75" meanHaltingDuration="34.30" maxHaltingDuration="93.00" haltingDurationSum="9501.00" meanIntervalHaltingDuration="34.30" maxIntervalHaltingDuration="93.00" intervalHaltingDurationSum="9501.00" startedHalts="277.00" meanVehicleNumber="3.49" maxVehicleNumber="18" />
   <interval begin="0.00" end="4675.00" id="34_13" sampledSeconds="8418.78" nVehEntered="866" nVehLeft="866" nVehSeen="866" meanSpeed="7.60" meanTimeLoss="4.25" meanOccupancy="10.69" maxOccupancy="48.50" meanMaxJamLengthInVehicles="0.47" meanMaxJamLengthInMeters="2.57" maxJamLengthInVehicles="6" maxJamLengthInMeters="36.06" jamLengthInVehiclesSum="2192" jamLengthInMetersSum="12021.84" meanHaltingDuration="18.11" maxHaltingDuration="96.00" haltingDurationSum="2227.00" meanIntervalHaltingDuration="18.11" maxIntervalHaltingDuration="96.00" intervalHaltingDurationSum="2227.00" startedHalts="141.00" meanVehicleNumber="1.95" maxVehicleNumber="8" />
   <interval begin="0.00" end="4675.00" id="34_14" sampledSeconds="5341.87" nVehEntered="782" nVehLeft="782" nVehSeen="782" meanSpeed="8.19" meanTimeLoss="2.84" meanOccupancy="6.66" maxOccupancy="37.16" meanMaxJamLengthInVehicles="0.32" meanMaxJamLengthInMeters="1.74" maxJamLengthInVehicles="6" maxJamLengthInMeters="36.56" jamLengthInVehiclesSum="1519" jamLengthInMetersSum="8118.99" meanHaltingDuration="16.21" maxHaltingDuration="96.00" haltingDurationSum="1540.00" meanIntervalHaltingDuration="16.21" maxIntervalHaltingDuration="96.00" intervalHaltingDurationSum="1540.00" startedHalts="109.00" meanVehicleNumber="1.26" maxVehicleNumber="6" />
   <interval begin="0.00" end="4675.00" id="34_15" sampledSeconds="1845.37" nVehEntered="234" nVehLeft="234" nVehSeen="234" meanSpeed="5.32" meanTimeLoss="5.07" meanOccupancy="2.17" maxOccupancy="36.53" meanMaxJamLengthInVehicles="0.19" meanMaxJamLengthInMeters="1.02" maxJamLengthInVehicles="6" maxJamLengthInMeters="36.06" jamLengthInVehiclesSum="866" jamLengthInMetersSum="4763.32" meanHaltingDuration="14.69" maxHaltingDuration="73.00" haltingDurationSum="911.00" meanIntervalHaltingDuration="14.69" maxIntervalHaltingDuration="73.00" intervalHaltingDurationSum="911.00" startedHalts="63.00" meanVehicleNumber="0.42" maxVehicleNumber="6" />
   <interval begin="0.00" end="4675.00" id="27_1" sampledSeconds="9003.63" nVehEntered="593" nVehLeft="593" nVehSeen="593" meanSpeed="1.57" meanTimeLoss="13.06" meanOccupancy="39.26" maxOccupancy="82.58" meanMaxJamLengthInVehicles="1.39" meanMaxJamLengthInMeters="7.11" maxJamLengthInVehicles="4" maxJamLengthInMeters="20.00" jamLengthInVehiclesSum="6499" jamLengthInMetersSum="33262.87" meanHaltingDuration="39.82" maxHaltingDuration="118.00" haltingDurationSum="6650.00" meanIntervalHaltingDuration="39.82" maxIntervalHaltingDuration="118.00" intervalHaltingDurationSum="6650.00" startedHalts="171.00" meanVehicleNumber="2.05" maxVehicleNumber="4" />
   <interval begin="0.00" end="4675.00" id="27_2" sampledSeconds="7129.08" nVehEntered="714" nVehLeft="714" nVehSeen="714" meanSpeed="2.30" meanTimeLoss="8.32" meanOccupancy="30.46" maxOccupancy="80.08" meanMaxJamLengthInVehicles="1.11" meanMaxJamLengthInMeters="5.54" maxJamLengthInVehicles="4" maxJamLengthInMeters="20.00" jamLengthInVehiclesSum="5183" jamLengthInMetersSum="25895.74" meanHaltingDuration="43.19" maxHaltingDuration="94.00" haltingDurationSum="5269.00" meanIntervalHaltingDuration="43.19" maxIntervalHaltingDuration="94.00" intervalHaltingDurationSum="5269.00" startedHalts="140.00" meanVehicleNumber="1.67" maxVehicleNumber="4" />
   <interval begin="0.00" end="4675.00" id="27_3" sampledSeconds="6061.73" nVehEntered="401" nVehLeft="401" nVehSeen="401" meanSpeed="1.59" meanTimeLoss="13.43" meanOccupancy="25.96" maxOccupancy="80.08" meanMaxJamLengthInVehicles="1.02" meanMaxJamLengthInMeters="5.10" maxJamLengthInVehicles="4" maxJamLengthInMeters="20.00" jamLengthInVehiclesSum="4763" jamLengthInMetersSum="23828.19" meanHaltingDuration="42.06" maxHaltingDuration="94.00" haltingDurationSum="4879.00" meanIntervalHaltingDuration="42.06" maxIntervalHaltingDuration="94.00" intervalHaltingDurationSum="4879.00" startedHalts="116.00" meanVehicleNumber="1.38" maxVehicleNumber="4" />
   <interval begin="0.00" end="4675.00" id="27_4" sampledSeconds="0.00" nVehEntered="0" nVehLeft="0" nVehSeen="0" meanSpeed="-1.00" meanTimeLoss="-1.00" meanOccupancy="0.00" maxOccupancy="0.00" meanMaxJamLengthInVehicles="0.00" meanMaxJamLengthInMeters="0.00" maxJamLengthInVehicles="0" maxJamLengthInMeters="0.00" jamLengthInVehiclesSum="0" jamLengthInMetersSum="0.00" meanHaltingDuration="0.00" maxHaltingDuration="0.00" haltingDurationSum="0.00" meanIntervalHaltingDuration="0.00" maxIntervalHaltingDuration="0.00" intervalHaltingDurationSum="0.00" startedHalts="0.00" meanVehicleNumber="0.00" maxVehicleNumber="0" />
   <interval begin="0.00" end="4675.00" id="27_5" sampledSeconds="885.41" nVehEntered="24" nVehLeft="24" nVehSeen="24" meanSpeed="0.59" meanTimeLoss="35.32" meanOccupancy="18.24" maxOccupancy="100.00" meanMaxJamLengthInVehicles="0.17" meanMaxJamLengthInMeters="1.74" maxJamLengthInVehicles="1" maxJamLengthInMeters="10.38" jamLengthInVehiclesSum="782" jamLengthInMetersSum="8115.31" meanHaltingDuration="46.07" maxHaltingDuration="137.00" haltingDurationSum="645.00" meanIntervalHaltingDuration="46.07" maxIntervalHaltingDuration="137.00" intervalHaltingDurationSum="645.00" startedHalts="15.00" meanVehicleNumber="0.19" maxVehicleNumber="1" />
   <interval begin="0.00" end="4675.00" id="27_6" sampledSeconds="0.00" nVehEntered="0" nVehLeft="0" nVehSeen="0" meanSpeed="-1.00" meanTimeLoss="-1.00" meanOccupancy="0.00" maxOccupancy="0.00" meanMaxJamLengthInVehicles="0.00" meanMaxJamLengthInMeters="0.00" maxJamLengthInVehicles="0" maxJamLengthInMeters="0.00" jamLengthInVehiclesSum="0" jamLengthInMetersSum="0.00" meanHaltingDuration="0.00" maxHaltingDuration="0.00" haltingDurationSum="0.00" meanIntervalHaltingDuration="0.00" maxIntervalHaltingDuration="0.00" intervalHaltingDurationSum="0.00" startedHalts="0.00" meanVehicleNumber="0.00" maxVehicleNumber="0" />
   <interval begin="0.00" end="4675.00" id="27_7" sampledSeconds="5197.91" nVehEntered="579" nVehLeft="579" nVehSeen="579" meanSpeed="2.70" meanTimeLoss="7.19" meanOccupancy="24.63" maxOccupancy="85.00" meanMaxJamLengthInVehicles="0.76" meanMaxJamLengthInMeters="4.14" maxJamLengthInVehicles="4" maxJamLengthInMeters="20.00" jamLengthInVehiclesSum="3537" jamLengthInMetersSum="19356.95" meanHaltingDuration="31.70" maxHaltingDuration="91.00" haltingDurationSum="3614.00" meanIntervalHaltingDuration="31.70" maxIntervalHaltingDuration="91.00" intervalHaltingDurationSum="3614.00" startedHalts="118.00" meanVehicleNumber="1.23" maxVehicleNumber="4" />
   <interval begin="0.00" end="4675.00" id="27_8" sampledSeconds="4959.53" nVehEntered="562" nVehLeft="562" nVehSeen="562" meanSpeed="2.77" meanTimeLoss="7.10" meanOccupancy="22.10" maxOccupancy="75.48" meanMaxJamLengthInVehicles="0.72" meanMaxJamLengthInMeters="3.72" maxJamLengthInVehicles="4" maxJamLengthInMeters="19.10" jamLengthInVehiclesSum="3355" jamLengthInMetersSum="17375.74" meanHaltingDuration="30.93" maxHaltingDuration="93.00" haltingDurationSum="3464.00" meanIntervalHaltingDuration="30.93" maxIntervalHaltingDuration="93.00" intervalHaltingDurationSum="3464.00" startedHalts="116.00" meanVehicleNumber="1.18" maxVehicleNumber="4" />
   <interval begin="0.00" end="4675.00" id="27_9" sampledSeconds="1816.83" nVehEntered="61" nVehLeft="61" nVehSeen="61" meanSpeed="0.81" meanTimeLoss="28.06" meanOccupancy="8.62" maxOccupancy="77.98" meanMaxJamLengthInVehicles="0.33" meanMaxJamLengthInMeters="1.69" maxJamLengthInVehicles="4" maxJamLengthInMeters="19.10" jamLengthInVehiclesSum="1533" jamLengthInMetersSum="7918.48" meanHaltingDuration="35.80" maxHaltingDuration="99.00" haltingDurationSum="1575.00" meanIntervalHaltingDuration="35.80" maxIntervalHaltingDuration="99.00" intervalHaltingDurationSum="1575.00" startedHalts="47.00" meanVehicleNumber="0.40" maxVehicleNumber="4" />
   <interval begin="0.00" end="4675.00" id="27_10" sampledSeconds="7688.28" nVehEntered="276" nVehLeft="276" nVehSeen="276" meanSpeed="0.89" meanTimeLoss="25.79" meanOccupancy="34.20" maxOccupancy="77.49" meanMaxJamLengthInVehicles="1.38" meanMaxJamLengthInMeters="6.98" maxJamLengthInVehicles="4" maxJamLengthInMeters="20.01" jamLengthInVehiclesSum="6469" jamLengthInMetersSum="32653.00" meanHaltingDuration="47.54" maxHaltingDuration="142.00" haltingDurationSum="6608.00" meanIntervalHaltingDuration="47.54" maxIntervalHaltingDuration="142.00" intervalHaltingDurationSum="6608.00" startedHalts="139.00" meanVehicleNumber="1.71" maxVehicleNumber="4" />
   <interval begin="0.00" end="4675.00" id="27_11" sampledSeconds="1890.88" nVehEntered="59" nVehLeft="59" nVehSeen="59" meanSpeed="0.88" meanTimeLoss="30.00" meanOccupancy="15.88" maxOccupancy="84.96" meanMaxJamLengthInVehicles="0.34" meanMaxJamLengthInMeters="2.99" maxJamLengthInVehicles="3" maxJamLengthInMeters="20.01" jamLengthInVehiclesSum="1604" jamLengthInMetersSum="13990.75" meanHaltingDuration="46.83" maxHaltingDuration="128.00" haltingDurationSum="1639.00" meanIntervalHaltingDuration="46.83" maxIntervalHaltingDuration="128.00" intervalHaltingDurationSum="1639.00" startedHalts="35.00" meanVehicleNumber="0.42" maxVehicleNumber="3" />
   <interval begin="0.00" end="4675.00" id="27_12" sampledSeconds="8137.21" nVehEntered="225" nVehLeft="225" nVehSeen="225" meanSpeed="0.69" meanTimeLoss="34.24" meanOccupancy="36.43" maxOccupancy="77.49" meanMaxJamLengthInVehicles="1.47" meanMaxJamLengthInMeters="7.47" maxJamLengthInVehicles="4" maxJamLengthInMeters="20.01" jamLengthInVehiclesSum="6850" jamLengthInMetersSum="34929.81" meanHaltingDuration="36.40" maxHaltingDuration="137.00" haltingDurationSum="7026.00" meanIntervalHaltingDuration="36.40" maxIntervalHaltingDuration="137.00" intervalHaltingDurationSum="7026.00" startedHalts="199.00" meanVehicleNumber="1.79" maxVehicleNumber="5" />
   <interval begin="0.00" end="4675.00" id="27_13" sampledSeconds="4029.11" nVehEntered="766" nVehLeft="766" nVehSeen="766" meanSpeed="4.49" meanTimeLoss="3.49" meanOccupancy="17.33" maxOccupancy="77.48" meanMaxJamLengthInVehicles="0.41" meanMaxJamLengthInMeters="2.01" maxJamLengthInVehicles="4" maxJamLengthInMeters="20.00" jamLengthInVehiclesSum="1906" jamLengthInMetersSum="9401.70" meanHaltingDuration="22.22" maxHaltingDuration="119.00" haltingDurationSum="1889.00" meanIntervalHaltingDuration="22.22" maxIntervalHaltingDuration="119.00" intervalHaltingDurationSum="1889.00" startedHalts="117.00" meanVehicleNumber="1.02" maxVehicleNumber="4" />
   <interval begin="0.00" end="4675.00" id="27_14" sampledSeconds="2533.56" nVehEntered="935" nVehLeft="935" nVehSeen="935" meanSpeed="8.04" meanTimeLoss="1.17" meanOccupancy="10.53" maxOccupancy="77.45" meanMaxJamLengthInVehicles="0.14" meanMaxJamLengthInMeters="0.62" maxJamLengthInVehicles="4" maxJamLengthInMeters="20.00" jamLengthInVehiclesSum="654" jamLengthInMetersSum="2875.76" meanHaltingDuration="16.82" maxHaltingDuration="55.00" haltingDurationSum="639.00" meanIntervalHaltingDuration="16.82" maxIntervalHaltingDuration="55.00" intervalHaltingDurationSum="639.00" startedHalts="54.00" meanVehicleNumber="0.71" maxVehicleNumber="4" />
   <interval begin="0.00" end="4675.00" id="27_15" sampledSeconds="716.66" nVehEntered="157" nVehLeft="157" nVehSeen="157" meanSpeed="2.34" meanTimeLoss="3.82" meanOccupancy="2.69" maxOccupancy="75.00" meanMaxJamLengthInVehicles="0.10" meanMaxJamLengthInMeters="0.46" maxJamLengthInVehicles="3" maxJamLengthInMeters="19.12" jamLengthInVehiclesSum="452" jamLengthInMetersSum="2147.74" meanHaltingDuration="15.42" maxHaltingDuration="49.00" haltingDurationSum="478.00" meanIntervalHaltingDuration="15.42" maxIntervalHaltingDuration="49.00" intervalHaltingDurationSum="478.00" startedHalts="36.00" meanVehicleNumber="0.17" maxVehicleNumber="3" />
   <interval begin="0.00" end="4675.00" id="27_16" sampledSeconds="1162.38" nVehEntered="505" nVehLeft="505" nVehSeen="505" meanSpeed="10.57" meanTimeLoss="0.50" meanOccupancy="4.88" maxOccupancy="60.00" meanMaxJamLengthInVehicles="0.00" meanMaxJamLengthInMeters="0.00" maxJamLengthInVehicles="0" maxJamLengthInMeters="0.00" jamLengthInVehiclesSum="0" jamLengthInMetersSum="0.00" meanHaltingDuration="0.00" maxHaltingDuration="0.00" haltingDurationSum="0.00" meanIntervalHaltingDuration="0.00" maxIntervalHaltingDuration="0.00" intervalHaltingDurationSum="0.00" startedHalts="0.00" meanVehicleNumber="0.36" maxVehicleNumber="3" />
   <interval begin="0.00" end="4675.00" id="27_17" sampledSeconds="1127.33" nVehEntered="493" nVehLeft="493" nVehSeen="493" meanSpeed="10.31" meanTimeLoss="0.62" meanOccupancy="4.63" maxOccupancy="55.17" meanMaxJamLengthInVehicles="0.00" meanMaxJamLengthInMeters="0.00" maxJamLengthInVehicles="0" maxJamLengthInMeters="0.00" jamLengthInVehiclesSum="0" jamLengthInMetersSum="0.00" meanHaltingDuration="1.00" maxHaltingDuration="1.00" haltingDurationSum="2.00" meanIntervalHaltingDuration="1.00" maxIntervalHaltingDuration="1.00" intervalHaltingDurationSum="2.00" startedHalts="2.00" meanVehicleNumber="0.34" maxVehicleNumber="3" />
   <interval begin="0.00" end="4675.00" id="27_18" sampledSeconds="467.76" nVehEntered="229" nVehLeft="229" nVehSeen="229" meanSpeed="11.40" meanTimeLoss="0.38" meanOccupancy="1.99" maxOccupancy="46.14" meanMaxJamLengthInVehicles="0.00" meanMaxJamLengthInMeters="0.00" maxJamLengthInVehicles="0" maxJamLengthInMeters="0.00" jamLengthInVehiclesSum="0" jamLengthInMetersSum="0.00" meanHaltingDuration="0.00" maxHaltingDuration="0.00" haltingDurationSum="0.00" meanIntervalHaltingDuration="0.00" maxIntervalHaltingDuration="0.00" intervalHaltingDurationSum="0.00" startedHalts="0.00" meanVehicleNumber="0.15" maxVehicleNumber="2" />
   <interval begin="0.00" end="4675.00" id="27_19" sampledSeconds="1290.35" nVehEntered="560" nVehLeft="560" nVehSeen="560" meanSpeed="10.93" meanTimeLoss="0.49" meanOccupancy="5.61" maxOccupancy="60.00" meanMaxJamLengthInVehicles="0.00" meanMaxJamLengthInMeters="0.00" maxJamLengthInVehicles="1" maxJamLengthInMeters="3.02" jamLengthInVehiclesSum="6" jamLengthInMetersSum="14.45" meanHaltingDuration="7.00" maxHaltingDuration="7.00" haltingDurationSum="7.00" meanIntervalHaltingDuration="7.00" maxIntervalHaltingDuration="7.00" intervalHaltingDurationSum="7.00" startedHalts="1.00" meanVehicleNumber="0.39" maxVehicleNumber="2" />
   <interval begin="0.00" end="4675.00" id="27_20" sampledSeconds="22035.96" nVehEntered="770" nVehLeft="770" nVehSeen="770" meanSpeed="2.47" meanTimeLoss="23.10" meanOccupancy="28.88" maxOccupancy="77.97" meanMaxJamLengthInVehicles="3.00" meanMaxJamLengthInMeters="18.63" maxJamLengthInVehicles="13" maxJamLengthInMeters="79.52" jamLengthInVehiclesSum="14152" jamLengthInMetersSum="87764.32" meanHaltingDuration="31.76" maxHaltingDuration="119.00" haltingDurationSum="14481.00" meanIntervalHaltingDuration="31.76" maxIntervalHaltingDuration="119.00" intervalHaltingDurationSum="14481.00" startedHalts="502.00" meanVehicleNumber="4.86" maxVehicleNumber="13" />
   <interval begin="0.00" end="4675.00" id="27_21" sampledSeconds="15619.07" nVehEntered="1071" nVehLeft="1071" nVehSeen="1071" meanSpeed="3.95" meanTimeLoss="10.46" meanOccupancy="19.94" maxOccupancy="78.60" meanMaxJamLengthInVehicles="1.92" meanMaxJamLengthInMeters="11.41" maxJamLengthInVehicles="13" maxJamLengthInMeters="79.52" jamLengthInVehiclesSum="8967" jamLengthInMetersSum="53365.02" meanHaltingDuration="30.03" maxHaltingDuration="94.00" haltingDurationSum="9188.00" meanIntervalHaltingDuration="30.03" maxIntervalHaltingDuration="94.00" intervalHaltingDurationSum="9188.00" startedHalts="361.00" meanVehicleNumber="3.50" maxVehicleNumber="13" />
   <interval begin="0.00" end="4675.00" id="27_22" sampledSeconds="10845.63" nVehEntered="401" nVehLeft="401" nVehSeen="401" meanSpeed="1.87" meanTimeLoss="23.52" meanOccupancy="13.68" maxOccupancy="78.60" meanMaxJamLengthInVehicles="1.70" meanMaxJamLengthInMeters="10.15" maxJamLengthInVehicles="13" maxJamLengthInMeters="79.01" jamLengthInVehiclesSum="7961" jamLengthInMetersSum="47437.51" meanHaltingDuration="30.16" maxHaltingDuration="94.00" haltingDurationSum="8234.00" meanIntervalHaltingDuration="30.16" maxIntervalHaltingDuration="94.00" intervalHaltingDurationSum="8234.00" startedHalts="273.00" meanVehicleNumber="2.36" maxVehicleNumber="13" />
   <interval begin="0.00" end="4675.00" id="27_23" sampledSeconds="0.00" nVehEntered="0" nVehLeft="0" nVehSeen="0" meanSpeed="-1.00" meanTimeLoss="-1.00" meanOccupancy="0.00" maxOccupancy="0.00" meanMaxJamLengthInVehicles="0.00" meanMaxJamLengthInMeters="0.00" maxJamLengthInVehicles="0" maxJamLengthInMeters="0.00" jamLengthInVehiclesSum="0" jamLengthInMetersSum="0.00" meanHaltingDuration="0.00" maxHaltingDuration="0.00" haltingDurationSum="0.00" meanIntervalHaltingDuration="0.00" maxIntervalHaltingDuration="0.00" intervalHaltingDurationSum="0.00" startedHalts="0.00" meanVehicleNumber="0.00" maxVehicleNumber="0" />
   <interval begin="0.00" end="4675.00" id="27_24" sampledSeconds="885.41" nVehEntered="24" nVehLeft="24" nVehSeen="24" meanSpeed="0.59" meanTimeLoss="35.32" meanOccupancy="18.24" maxOccupancy="100.00" meanMaxJamLengthInVehicles="0.17" meanMaxJamLengthInMeters="1.74" maxJamLengthInVehicles="1" maxJamLengthInMeters="10.38" jamLengthInVehiclesSum="782" jamLengthInMetersSum="8115.31" meanHaltingDuration="46.07" maxHaltingDuration="137.00" haltingDurationSum="645.00" meanIntervalHaltingDuration="46.07" maxIntervalHaltingDuration="137.00" intervalHaltingDurationSum="645.00" startedHalts="15.00" meanVehicleNumber="0.19" maxVehicleNumber="1" />
   <interval begin="0.00" end="4675.00" id="27_25" sampledSeconds="0.00" nVehEntered="0" nVehLeft="0" nVehSeen="0" meanSpeed="-1.00" meanTimeLoss="-1.00" meanOccupancy="0.00" maxOccupancy="0.00" meanMaxJamLengthInVehicles="0.00" meanMaxJamLengthInMeters="0.00" maxJamLengthInVehicles="0" maxJamLengthInMeters="0.00" jamLengthInVehiclesSum="0" jamLengthInMetersSum="0.00" meanHaltingDuration="0.00" maxHaltingDuration="0.00" haltingDurationSum="0.00" meanIntervalHaltingDuration="0.00" maxIntervalHaltingDuration="0.00" intervalHaltingDurationSum="0.00" startedHalts="0.00" meanVehicleNumber="0.00" maxVehicleNumber="0" />
   <interval begin="0.00" end="4675.00" id="27_26" sampledSeconds="1354.64" nVehEntered="24" nVehLeft="24" nVehSeen="24" meanSpeed="2.98" meanTimeLoss="44.34" meanOccupancy="2.13" maxOccupancy="23.05" meanMaxJamLengthInVehicles="0.17" meanMaxJamLengthInMeters="2.17" maxJamLengthInVehicles="3" maxJamLengthInMeters="42.06" jamLengthInVehiclesSum="817" jamLengthInMetersSum="10150.53" meanHaltingDuration="24.34" maxHaltingDuration="128.00" haltingDurationSum="852.00" meanIntervalHaltingDuration="24.34" maxIntervalHaltingDuration="128.00" intervalHaltingDurationSum="852.00" startedHalts="35.00" meanVehicleNumber="0.29" maxVehicleNumber="3" />
   <interval begin="0.00" end="4675.00" id="27_27" sampledSeconds="0.00" nVehEntered="0" nVehLeft="0" nVehSeen="0" meanSpeed="-1.00" meanTimeLoss="-1.00" meanOccupancy="0.00" maxOccupancy="0.00" meanMaxJamLengthInVehicles="0.00" meanMaxJamLengthInMeters="0.00" maxJamLengthInVehicles="0" maxJamLengthInMeters="0.00" jamLengthInVehiclesSum="0" jamLengthInMetersSum="0.00" meanHaltingDuration="0.00" maxHaltingDuration="0.00" haltingDurationSum="0.00" meanIntervalHaltingDuration="0.00" maxIntervalHaltingDuration="0.00" intervalHaltingDurationSum="0.00" startedHalts="0.00" meanVehicleNumber="0.00" maxVehicleNumber="0" />
   <interval begin="0.00" end="4675.00" id="27_28" sampledSeconds="9194.59" nVehEntered="601" nVehLeft="601" nVehSeen="601" meanSpeed="3.86" meanTimeLoss="10.95" meanOccupancy="16.29" maxOccupancy="80.56" meanMaxJamLengthInVehicles="1.14" meanMaxJamLengthInMeters="6.74" maxJamLengthInVehicles="10" maxJamLengthInMeters="57.10" jamLengthInVehiclesSum="5333" jamLengthInMetersSum="31515.09" meanHaltingDuration="28.41" maxHaltingDuration="91.00" haltingDurationSum="5484.00" meanIntervalHaltingDuration="28.41" maxIntervalHaltingDuration="91.00" intervalHaltingDurationSum="5484.00" startedHalts="201.00" meanVehicleNumber="2.09" maxVehicleNumber="10" />