------------------------------------------------------------
          Invoking FHI-aims ...

          When using FHI-aims, please cite the following reference:

            Volker Blum, Ralf Gehrke, Felix Hanke, Paula Havu,
            Ville Havu, Xinguo Ren, Karsten Reuter, and Matthias Scheffler,
            'Ab Initio Molecular Simulations with Numeric Atom-Centered Orbitals',
            Computer Physics Communications 180, 2175-2196 (2009)

          In addition, many other developments in FHI-aims are likely important for
          your particular application. If so, please cite them. A partial list of references
          is written at the end of this file. Thank you for giving credit to the authors
          of these developments.

          For general information about FHI-aims please find us at

            https://fhi-aims.org

          Online tutorials can be found at

            https://fhi-aims-club.gitlab.io/tutorials/tutorials-overview/

          For any questions about FHI-aims, please visit our slack channel at

            https://fhi-aims.slack.com

          and our main development and support site at

            https://aims-git.rz-berlin.mpg.de .

          The latter site, in particular, has a wiki to collect information, as well
          as an issue tracker to log discussions, suggest improvements, and report issues
          or bugs. https://aims-git.rz-berlin.mpg.de is also the main development site
          of the project and all new and updated code versions can be obtained there.
          Please send an email to aims-coordinators@fhi-berlin.mpg.de and we will add
          you to these sites. They are for you and everyone is welcome there.

------------------------------------------------------------



  Date     :  20240501, Time     :  140603.055
  Time zero on CPU 1             :   0.229700000000000E-01  s.
  Internal wall clock time zero  :           483804363.055  s.

  FHI-aims created a unique identifier for this run for later identification
  aims_uuid : EDE4CE13-C7C0-4E1B-A77A-7FDE6B3FA889

  Build configuration of the current instance of FHI-aims
  -------------------------------------------------------
  FHI-aims version      : 240206
  Commit number         : 2d3e5a79f
  CMake host system     : Linux-6.7.4-zen1-1-zen
  CMake version         : 3.28.3
  Fortran compiler      : /usr/bin/mpifort (GNU) version 13.2.1
  Fortran compiler flags: -fallow-argument-mismatch -march=native -ffree-line-length-none -fallow-argument-mismatch -march=native -ffree-line-length-none
  C compiler            : /usr/bin/gcc (GNU) version 13.2.1
  C compiler flags      :  -march=native
  C++ compiler          : /usr/bin/g++ (GNU) version 13.2.1
  C++ compiler flags    :  -march=native
  HIP compiler          :
  HIP compiler flags    :
  HIP GPU arch          :
  Using MPI
  Using ScaLAPACK
  Using LibXC
  Using i-PI
  Using RLSY
  Linking against: /usr/lib/libscalapack.so
                   /usr/lib/libopenblas.so

  Using        4 parallel tasks.
  Task        0 on host arch reporting.
  Task        1 on host arch reporting.
  Task        2 on host arch reporting.
  Task        3 on host arch reporting.

  Memory overcommitment is allowed on your operating system.

  Obtaining array dimensions for all initial allocations:
  
  -----------------------------------------------------------------------
  Parsing control.in (first pass over file, find array dimensions only).
  The contents of control.in will be repeated verbatim below
  unless switched off by setting 'verbatim_writeout .false.' .
  in the first line of control.in .
  -----------------------------------------------------------------------
  
  xc                           hse06 0.11
  hse_unit                     b
  ################################################################################
  #
  #  FHI-aims code project
  #  VB, Fritz-Haber Institut, 2009
  #
  #  Suggested "light" defaults for O atom (to be pasted into control.in file)
  #  Be sure to double-check any results obtained with these settings for post-processing,
  #  e.g., with the "tight" defaults and larger basis sets.
  #
  ################################################################################
    species        O
  #     global species definitions
      nucleus             8
      mass                15.9994
  #
      l_hartree           4
  #
      cut_pot             3.5  1.5  1.0
      basis_dep_cutoff    1e-4
  #
      radial_base         36 5.0
      radial_multiplier   1
       angular_grids specified
        division   0.2659   50
        division   0.4451  110
        division   0.6052  194
        division   0.7543  302
  #      division   0.8014  434
  #      division   0.8507  590
  #      division   0.8762  770
  #      division   0.9023  974
  #      division   1.2339 1202
  #      outer_grid 974
        outer_grid 302
  ################################################################################
  #
  #  Definition of "minimal" basis
  #
  ################################################################################
  #     valence basis states
      valence      2  s   2.
      valence      2  p   4.
  #     ion occupancy
      ion_occ      2  s   1.
      ion_occ      2  p   3.
  ################################################################################
  #
  #  Suggested additional basis functions. For production calculations,
  #  uncomment them one after another (the most important basis functions are
  #  listed first).
  #
  #  Constructed for dimers: 1.0 A, 1.208 A, 1.5 A, 2.0 A, 3.0 A
  #
  ################################################################################
  #  "First tier" - improvements: -699.05 meV to -159.38 meV
       hydro 2 p 1.8
       hydro 3 d 7.6
       hydro 3 s 6.4
  #  "Second tier" - improvements: -49.91 meV to -5.39 meV
  #     hydro 4 f 11.6
  #     hydro 3 p 6.2
  #     hydro 3 d 5.6
  #     hydro 5 g 17.6
  #     hydro 1 s 0.75
  #  "Third tier" - improvements: -2.83 meV to -0.50 meV
  #     ionic 2 p auto
  #     hydro 4 f 10.8
  #     hydro 4 d 4.7
  #     hydro 2 s 6.8
  #  "Fourth tier" - improvements: -0.40 meV to -0.12 meV
  #     hydro 3 p 5
  #     hydro 3 s 3.3
  #     hydro 5 g 15.6
  #     hydro 4 f 17.6
  #     hydro 4 d 14
  # Further basis functions - -0.08 meV and below
  #     hydro 3 s 2.1
  #     hydro 4 d 11.6
  #     hydro 3 p 16
  #     hydro 2 s 17.2
  ################################################################################
  #
  #  FHI-aims code project
  #  VB, Fritz-Haber Institut, 2009
  #
  #  Suggested "light" defaults for H atom (to be pasted into control.in file)
  #  Be sure to double-check any results obtained with these settings for post-processing,
  #  e.g., with the "tight" defaults and larger basis sets.
  #
  ################################################################################
    species        H
  #     global species definitions
      nucleus             1
      mass                1.00794
  #
      l_hartree           4
  #
      cut_pot             3.5  1.5  1.0
      basis_dep_cutoff    1e-4
  #
      radial_base         24 5.0
      radial_multiplier   1
      angular_grids       specified
        division   0.2421   50
        division   0.3822  110
        division   0.4799  194
        division   0.5341  302
  #      division   0.5626  434
  #      division   0.5922  590
  #      division   0.6542  770
  #      division   0.6868 1202
  #      outer_grid  770
        outer_grid  302
  ################################################################################
  #
  #  Definition of "minimal" basis
  #
  ################################################################################
  #     valence basis states
      valence      1  s   1.
  #     ion occupancy
      ion_occ      1  s   0.5
  ################################################################################
  #
  #  Suggested additional basis functions. For production calculations,
  #  uncomment them one after another (the most important basis functions are
  #  listed first).
  #
  #  Basis constructed for dimers: 0.5 A, 0.7 A, 1.0 A, 1.5 A, 2.5 A
  #
  ################################################################################
  #  "First tier" - improvements: -1014.90 meV to -62.69 meV
       hydro 2 s 2.1
       hydro 2 p 3.5
  #  "Second tier" - improvements: -12.89 meV to -1.83 meV
  #     hydro 1 s 0.85
  #     hydro 2 p 3.7
  #     hydro 2 s 1.2
  #     hydro 3 d 7
  #  "Third tier" - improvements: -0.25 meV to -0.12 meV
  #     hydro 4 f 11.2
  #     hydro 3 p 4.8
  #     hydro 4 d 9
  #     hydro 3 s 3.2
  
  -----------------------------------------------------------------------
  Completed first pass over input file control.in .
  -----------------------------------------------------------------------
  
  
  -----------------------------------------------------------------------
  Parsing geometry.in (first pass over file, find array dimensions only).
  The contents of geometry.in will be repeated verbatim below
  unless switched off by setting 'verbatim_writeout .false.' .
  in the first line of geometry.in .
  -----------------------------------------------------------------------
  
  atom       0.00000000     -0.07320103     -0.00000000 O
  atom       0.76731112     -0.67039949     -0.00000000 H
  atom      -0.76731112     -0.67039949     -0.00000000 H
  
  -----------------------------------------------------------------------
  Completed first pass over input file geometry.in .
  -----------------------------------------------------------------------
  

  Basic array size parameters:
  | Number of species                 :        2
  | Number of atoms                   :        3
  | Max. basis fn. angular momentum   :        2
  | Max. atomic/ionic basis occupied n:        2
  | Max. number of basis fn. types    :        2
  | Max. radial fns per species/type  :        3
  | Max. logarithmic grid size        :     1301
  | Max. radial integration grid size :       36
  | Max. angular integration grid size:      302
  | Max. angular grid division number :        8
  | Radial grid for Hartree potential :     1301
  | Number of spin channels           :        1

------------------------------------------------------------
          Reading file control.in.
------------------------------------------------------------

  XC: Using HSE-functional with OMEGA =  0.110000E+00 <units>.
  XC: For the actual units (bohr^-1 or Angstrom^-1), see below.
  hse_unit: Unit for the HSE06 hybrid functional screening parameter set to bohr^(-1).

  Reading configuration options for species O                   .
  | Found nuclear charge :   8.0000
  | Found atomic mass :    15.999400000000000      amu
  | Found l_max for Hartree potential  :   4
  | Found cutoff potl. onset [A], width [A], scale factor :    3.50000    1.50000    1.00000
  | Threshold for basis-dependent cutoff potential is   0.100000E-03
  | Found data for basic radial integration grid :    36 points, outermost radius =    5.000 A
  | Found multiplier for basic radial grid :   1
  | Found angular grid specification: user-specified.
  | Specified grid contains     5 separate shells.
  | Check grid settings after all constraints further below.
  | Found free-atom valence shell :  2 s   2.000
  | Found free-atom valence shell :  2 p   4.000
  | No ionic wave fns used. Skipping ion_occ.
  | No ionic wave fns used. Skipping ion_occ.
  | Found hydrogenic basis function :  2 p   1.800
  | Found hydrogenic basis function :  3 d   7.600
  | Found hydrogenic basis function :  3 s   6.400
 | Encountered keyword species, ending the description of species O                   .
  Species O                   : Missing cutoff potential type.
  Defaulting to exp(1/x)/(1-x)^2 type cutoff potential.
  Species O : No 'logarithmic' tag. Using default grid for free atom:
  | Default logarithmic grid data [bohr] : 0.1000E-03 0.1000E+03 0.1012E+01
  Species O : On-site basis accuracy parameter (for Gram-Schmidt orthonormalisation) not specified.
  Using default value basis_acc =  0.1000000E-03.
  Species O                   : Using default innermost maximum threshold i_radial=  2 for radial functions.
  Species O                   : Default cutoff onset for free atom density etc. : 0.35000000E+01 AA.
  Species O                   : Basic radial grid will be enhanced according to radial_multiplier =   1, to contain    36 grid points.

  Reading configuration options for species H                   .
  | Found nuclear charge :   1.0000
  | Found atomic mass :    1.0079400000000001      amu
  | Found l_max for Hartree potential  :   4
  | Found cutoff potl. onset [A], width [A], scale factor :    3.50000    1.50000    1.00000
  | Threshold for basis-dependent cutoff potential is   0.100000E-03
  | Found data for basic radial integration grid :    24 points, outermost radius =    5.000 A
  | Found multiplier for basic radial grid :   1
  | Found angular grid specification: user-specified.
  | Specified grid contains     5 separate shells.
  | Check grid settings after all constraints further below.
  | Found free-atom valence shell :  1 s   1.000
  | No ionic wave fns used. Skipping ion_occ.
  | Found hydrogenic basis function :  2 s   2.100
  | Found hydrogenic basis function :  2 p   3.500
  Species H                   : Missing cutoff potential type.
  Defaulting to exp(1/x)/(1-x)^2 type cutoff potential.
  Species H : No 'logarithmic' tag. Using default grid for free atom:
  | Default logarithmic grid data [bohr] : 0.1000E-03 0.1000E+03 0.1012E+01
  Species H : On-site basis accuracy parameter (for Gram-Schmidt orthonormalisation) not specified.
  Using default value basis_acc =  0.1000000E-03.
  Species H                   : Using default innermost maximum threshold i_radial=  2 for radial functions.
  Species H                   : Default cutoff onset for free atom density etc. : 0.35000000E+01 AA.
  Species H                   : Basic radial grid will be enhanced according to radial_multiplier =   1, to contain    24 grid points.

  Finished reading input file 'control.in'.

------------------------------------------------------------


------------------------------------------------------------
          Reading geometry description geometry.in.
------------------------------------------------------------
  | The smallest distance between any two atoms is         0.97232317 AA.
  | The first atom of this pair is atom number                      1 .
  | The second atom of this pair is atom number                     2 .
  Input structure read successfully.
  The structure contains        3 atoms,  and a total of         10.000 electrons.

  Input geometry:
  | No unit cell requested.
  | Atomic structure:
  |       Atom                x [A]            y [A]            z [A]
  |    1: Species O             0.00000000       -0.07320103       -0.00000000
  |    2: Species H             0.76731112       -0.67039949       -0.00000000
  |    3: Species H            -0.76731112       -0.67039949       -0.00000000

  Slab Identifier: This is not a periodic structure.

  Finished reading input file 'geometry.in'.



  Consistency checks for stacksize environment parameter are next.

  | Maximum stacksize for task 0: unlimited
  | Maximum stacksize for task 1: unlimited
  | Maximum stacksize for task 2: unlimited
  | Maximum stacksize for task 3: unlimited
  | Current stacksize for task 0: unlimited
  | Current stacksize for task 1: unlimited
  | Current stacksize for task 2: unlimited
  | Current stacksize for task 3: unlimited

  Consistency checks for the contents of control.in are next.

  HSE06 screening parameters: omega_HF  =      0.11000000 bohr^-1, and
                              omega_PBE =      0.11000000 bohr^-1.
  MPI_IN_PLACE appears to work with this MPI implementation.
  | Keeping use_mpi_in_place .true. (see manual).
  Explicit treatment of the Coulomb operator is needed, but the RI method is not specified.
  Coulomb operator: Defaulting to 'LVL fast' resolution of identity - RI_type = LVL_fast
  Species O: Using default value for prodbas_acc =   1.000000E-04.
  Species O: Using default value max_l_prodbas =    20.
  Species H: Using default value for prodbas_acc =   1.000000E-04.
  Species H: Using default value max_l_prodbas =    20.
  Target number of points in a grid batch is not set. Defaulting to  100
  Method for grid partitioning is not set. Defaulting to parallel hash+maxmin partitioning.
  Batch size limit is not set. Defaulting to    200
  By default, will store active basis functions for each batch.
  If in need of memory, prune_basis_once .false. can be used to disable this option.
  communication_type for Hartree potential was not specified.
  Defaulting to calc_hartree .
  Defaulting to Pulay charge density mixer.
  Pulay mixer: Number of relevant iterations not set.
  Defaulting to    8 iterations.
  Pulay mixer: Number of initial linear mixing iterations not set.
  Defaulting to    0 iterations.
  Work space size for distributed Hartree potential not set.
  Defaulting to   0.200000E+03 MB.
  Mixing parameter for charge density mixing has not been set.
  Using default: charge_mix_param =     0.0500.
  The mixing parameter will be adjusted in iteration number     2 of the first full s.c.f. cycle only.
  Algorithm-dependent basis array size parameters:
  | n_max_pulay                         :        8
  Maximum number of self-consistency iterations not provided.
  Presetting  1000 iterations.
  Presetting      1001 iterations before the initial mixing cycle
  is restarted anyway using the sc_init_iter criterion / keyword.
  Presetting a factor      1.000 between actual scf density residual
  and density convergence criterion sc_accuracy_rho below which sc_init_iter
  takes no effect.
 * No s.c.f. convergence criteria (sc_accuracy_*) were provided in control.in.
 * The run will proceed with a reasonable default guess, but please check whether.
 * the s.c.f. cycles seem to take too much or too little time.
  Calculation of forces was not defined in control.in. No forces will be calculated.
  Geometry relaxation not requested: no relaxation will be performed.
 * Notice: The s.c.f. convergence criterion sc_accuracy_rho was not provided.
 * We used to stop in this case, and ask the user to provide reasonable
 * scf convergence criteria. However, this led some users to employ criteria
 * that led to extremely long run times, e.g., for simple relaxation.
 * We now preset a default value for sc_accuracy_rho if it is not set.
 * You may still wish to check if this setting is too tight or too loose for your needs.
 * Based on n_atoms and forces and force-correction status, FHI-aims chose sc_accuracy_rho =  0.800000E-05 .
  No accuracy limit for integral partition fn. given. Defaulting to  0.1000E-14.
  No threshold value for u(r) in integrations given. Defaulting to  0.1000E-05.
  No occupation type (smearing scheme) given. Defaulting to Gaussian broadening, width =  0.1000E-01 eV.
  The width will be adjusted in iteration number     2 of the first full s.c.f. cycle only.
  S.C.F. convergence parameters will be adjusted in iteration number     2 of the first full s.c.f. cycle only.
  No accuracy for occupation numbers given. Defaulting to  0.1000E-12.
  No threshold value for occupation numbers given. Defaulting to  0.0000E+00.
  No accuracy for fermi level given. Defaulting to  0.1000E-19.
  Maximum # of iterations to find E_F not set. Defaulting to  200.
  Preferred method for the eigenvalue solver ('KS_method') not specified in 'control.in'.
  Calling BLACS routine to test compilation state
  Since ScaLAPACK support is enabled, defaulting to ELPA (via ELSI).
  Will not use alltoall communication since running on < 1024 CPUs.
  Threshold for basis singularities not set.
  Default threshold for basis singularities:  0.1000E-04
  partition_type (choice of integration weights) for integrals was not specified.
  | Using a version of the partition function of Stratmann and coworkers ('stratmann_sparse').
  | At each grid point, the set of atoms used to build the partition table is smoothly restricted to
  | only those atoms whose free-atom density would be non-zero at that grid point.
  Partitioning for Hartree potential was not defined. Using partition_type for integrals.
  | Adjusted default value of keyword multip_moments_threshold to:       0.10000000E-11
  | This value may affect high angular momentum components of the Hartree potential in periodic systems.
  Spin handling was not defined in control.in. Defaulting to unpolarized case.
  Threshold for auxiliary basis singularities not set.
  Default threshold for auxiliary basis singularities:  0.1000E-04
  No q(lm)/r^(l+1) cutoff set for long-range Hartree potential.
  | Using default value of  0.100000E-09 .
  | Verify using the multipole_threshold keyword.
  Defaulting to new monopole extrapolation.
  Density update method: automatic selection selected.
  Coulomb operator: Defaulting to screening threshold for four-center integrals:   0.100000E-06
  Coulomb operator: Defaulting to screening threshold for Coulomb matrix:   0.100000E-09
  Fock matrix calculation: Setting the screening threshold for overlap matrix to coul_mat_threshold:   0.100000E-09
  Coulomb operator: Defaulting to 'LVL_fast' resolution of identity - RI_type = LVL_fast 
  No other resolution of identity version is supported for periodic boundary conditions at present.
  Coulomb operator: Defaulting to logarithmic spherical Bessel transform integrals (use_logsbt .true.).
  HSE with LVL_fast: Also defaulting to logarithmic spherical Bessel transform integrals.
  Charge integration errors on the 3D integration grid will be compensated
  by explicit normalization and distribution of residual charges.
  Use the "compensate_multipole_errors" flag to change this behaviour.
  LVL not implemented with density matrix yet
  -> switching to transformed overlap
  LVL probably works better with logsbt
  Default to 1D ("use_logsbt") integrations for auxiliary 2-center integrals.
  Default onset of logarithmic r-grid for SBT is -38.000000000000
  Default onset of logarithmic k-grid for SBT is -25.000000000000
  Default range of logarithmic r- and k-grid for SBT is  45.000000000000
  Default number of logarithmic r- and k-grid for SBT is   4096
  * Use logSBT for radial HSE integration, too
  Default of use_2d_corr is to use the efficient 2D distribution where possible
  Set 'collect_eigenvectors' to be '.true.' for use_density_matrix .false.

  Consistency checks for the contents of geometry.in are next.

 * Warning! You did not set the 'relativistic' flag in input file 'control.in'.
 * FHI-aims will default to 'relativistic atomic_zora scalar'.
 * You must ensure that this is really what you want!!
 * For example, DO NOT compute total-energy differences between results from
 * different settings of the 'relativistic' flag.
  Number of empty states per atom not set in control.in - providing a guess from actual geometry.
  | Total number of empty states used during s.c.f. cycle:        6
  If you use a very high smearing, use empty_states (per atom!) in control.in to increase this value.

  Structure-dependent array size parameters: 
  | Maximum number of distinct radial functions  :        9
  | Maximum number of basis functions            :       24
  | Number of Kohn-Sham states (occupied + empty):       11
------------------------------------------------------------
  Setting Coulomb cut-width to  1.091868692359 * rcut.
  Setting Coulomb cutting radius rcut to  8.000000000000 A.
  After read_input_data [GB]:     52.95

  Performing system and environment tests:
  *** Environment variable OMP_NUM_THREADS is not set
  *** For performance reasons you might want to set it to 1
  | Checking for ScaLAPACK...
  | Testing pdtran()...
  | All pdtran() tests passed.
  After prepare_system [GB]:     52.94

------------------------------------------------------------
          Preparing all fixed parts of the calculation.
------------------------------------------------------------
  Determining machine precision:
     2.2250738585072014E-308
  Setting up grids for atomic and cluster calculations.

  Creating wave function, potential, and density for free atoms.
  Runtime choices for atomic solver:
  | atomic solver xc        : PBE
  | compute density gradient: 1
  | compute kinetic density : F

  Species: O

  List of occupied orbitals and eigenvalues:
    n    l              occ      energy [Ha]    energy [eV]
    1    0           2.0000       -18.926989      -515.0296
    2    0           2.0000        -0.880247       -23.9527
    2    1           4.0000        -0.331514        -9.0210


  Species: H

  List of occupied orbitals and eigenvalues:
    n    l              occ      energy [Ha]    energy [eV]
    1    0           1.0000        -0.237593        -6.4652


  Adding cutoff potential to free-atom effective potential.
  Creating fixed part of basis set: Ionic, confined, hydrogenic.

  O                    hydrogenic:

  List of hydrogenic basis orbitals: 
    n    l      effective z      eigenvalue [eV]  inner max. [A]     outer max. [A]     outer radius [A]   
    2    1         1.800000       -10.9749           1.164242           1.164242           4.578029
    3    2         7.600000       -87.3180           0.624125           0.624125           3.251020
    3    0         6.400000       -61.9207           0.061167           1.081902           4.001998


  H                    hydrogenic:

  List of hydrogenic basis orbitals: 
    n    l      effective z      eigenvalue [eV]  inner max. [A]     outer max. [A]     outer radius [A]   
    2    0         2.100000       -14.9728           0.193243           1.317208           4.583499
    2    1         3.500000       -41.6669           0.602369           0.602369           3.723403

  Creating atomic-like basis functions for current effective potential.

  Species O                   :

  List of atomic basis orbitals and eigenvalues:
    n    l      energy [Ha]    energy [eV]    outer radius [A]
    1    0       -18.926989      -515.0296       1.415765
    2    0        -0.880247       -23.9527       4.413171
    2    1        -0.331514        -9.0210       4.522403


  Species H                   :

  List of atomic basis orbitals and eigenvalues:
    n    l      energy [Ha]    energy [eV]    outer radius [A]
    1    0        -0.237593        -6.4652       4.527807

  Assembling full basis from fixed parts.
  | Species O :   atomic orbital   1 s accepted.
  | Species O :    hydro orbital   3 s accepted.
  | Species O :   atomic orbital   2 s accepted.
  | Species O :   atomic orbital   2 p accepted.
  | Species O :    hydro orbital   2 p accepted.
  | Species O :    hydro orbital   3 d accepted.
  | Species H :   atomic orbital   1 s accepted.
  | Species H :    hydro orbital   2 s accepted.
  | Species H :    hydro orbital   2 p accepted.

  Basis size parameters after reduction:
  | Total number of radial functions:        9
  | Total number of basis functions :       24

  Per-task memory consumption for arrays in subroutine allocate_ext:
  |           2.998708MB.
  Testing on-site integration grid accuracy.
  |  Species  Function  <phi|h_atom|phi> (log., in eV)  <phi|h_atom|phi> (rad., in eV)
           1        1               -515.0295626295               -515.0294562738
           1        2                 15.1698434419                 15.1699322204
           1        3                -21.6038822678                -21.6039118105
           1        4                 -9.0211123393                 -9.0212703513
           1        5                  8.3047696391                  8.2854840999
           1        6                 45.8428042125                 45.8427461222
           2        7                 -6.4664147733                 -6.4652229287
           2        8                 13.7099062243                 13.7158503352
           2        9                 25.2661739479                 25.2663166526

  Preparing densities etc. for the partition functions (integrals / Hartree potential).

  Preparations completed.
  max(cpu_time)          :      0.086 s.
  Wall clock time (cpu1) :      0.086 s.
------------------------------------------------------------
  After prepare_scf [GB]:     52.88

  Initializing index lists of integration centers etc. from given atomic structure:
  | Number of centers in hartree potential         :         3
  | Number of centers in hartree multipole         :         3
  | Number of centers in electron density summation:         3
  | Number of centers in basis integrals           :         3
  | Number of centers in integrals                 :         3
  | Number of centers in hamiltonian               :         3
  After initialize_bc_dependent_lists [GB]:     52.92

------------------------------------------------------------
          Begin self-consistency loop: Initialization.

          Date     :  20240501, Time     :  140603.158
------------------------------------------------------------
  Available memory per node after initialize_hartree_non_periodic_ewald [GB]:     52.92
  Available memory per node after initialize_recip_hartree_potential [GB]:     52.92
  * Using 4 tasks for Scalapack Eigenvalue solver.
  Detailed listing of tasks and assigned k-points:
  (for non-periodic systems, the "k-point" denotes an internal label only)
   Task     0 k-point     1 on arch
   Task     1 k-point     1 on arch
   Task     2 k-point     1 on arch
   Task     3 k-point     1 on arch
  Tasks:     4 split into      2 X      2 BLACS grid
  Calculating block size based on n_basis =           24  max_nprow =            2  max_npcol =            2
  ScaLAPACK block size set to:            8
  Allocating        0.002 MB for ovlp
  Allocating        0.002 MB for ham
  Allocating        0.002 MB for eigenvec
  Required Scalapack workspace - INTEGER:            1  REAL:             1
  Available memory per node after initialize_scalapack [GB]:     52.92
  Available memory per node after aims_elsi_init_scf [GB]:     52.92
  Available memory per node after initialize_fixed_grids [GB]:     52.92
  Partitioning the integration grid into batches with parallel hashing+maxmin method.
  | Number of batches:      249
  | Maximal batch size:     102
  | Minimal batch size:      49
  | Average batch size:      63.952
  | Standard deviation of batch sizes:       9.005

  Integration load balanced across     4 MPI tasks.
  Work distribution over tasks is as follows:
  Task     0 has       3948 integration points.
  Task     1 has       3984 integration points.
  Task     2 has       3983 integration points.
  Task     3 has       4009 integration points.
  Available memory per node after partition_grid [GB]:     52.92
  Initializing partition tables, free-atom densities, potentials, etc. across the integration grid (initialize_grid_storage).
  | initialize_grid_storage: Actual outermost partition radius vs. multipole_radius_free
  | (-- VB: in principle, multipole_radius_free should be larger, hence this output)
  | Species        1: Confinement radius =              4.999999999999999 AA, multipole_radius_free =              5.048384829883283 AA.
  | Species        1: outer_partition_radius set to              5.048384829883283 AA .
  | Species        2: Confinement radius =              4.999999999999999 AA, multipole_radius_free =              5.054417573612229 AA.
  | Species        2: outer_partition_radius set to              5.054417573612229 AA .
  | The sparse table of interatomic distances needs          0.09 kbyte instead of         0.07 kbyte of memory.
  | Using the partition_type stratmann_smoother will reduce your memory usage.
  | Net number of integration points:    15924
  | of which are non-zero points    :    14544
  Available memory per node after initialize_grid_storage_p1 [GB]:     52.92
  Renormalizing the initial density to the exact electron count on the 3D integration grid.
  | Initial density: Formal number of electrons (from input files) :      10.0000000000
  | Integrated number of electrons on 3D grid     :       9.9999460531
  | Charge integration error                      :      -0.0000539469
  | Normalization factor for density and gradient :       1.0000053947
  Renormalizing the free-atom superposition density to the exact electron count on the 3D integration grid.
  | Formal number of electrons (from input files) :      10.0000000000
  | Integrated number of electrons on 3D grid     :       9.9999460531
  | Charge integration error                      :      -0.0000539469
  | Normalization factor for density and gradient :       1.0000053947
  Obtaining max. number of non-zero basis functions in each batch (get_n_compute_maxes).
  | Maximal number of non-zero basis functions:       24 in task     0
  | Maximal number of non-zero basis functions:       24 in task     1
  | Maximal number of non-zero basis functions:       24 in task     2
  | Maximal number of non-zero basis functions:       24 in task     3
  Selecting the method for density update.
  Loop over occupied states selected for charge density update.
  Available memory per node after get_n_compute_maxes_p1 [GB]:     52.92
  Allocating        0.002 MB for KS_eigenvector
  Available memory per node after allocate_matrices [GB]:     52.92
  Available memory per node after init_comm_sparse_local_matrix_scalapack [GB]:     52.92
  Integrating Hamiltonian matrix: batch-based integration.
  Time summed over all CPUs for integration: real work        0.045 s, elapsed        0.046 s
  Available memory per node after integrate hamiltonian matrix [GB]:     52.92
  Integrating overlap matrix.
  Time summed over all CPUs for integration: real work        0.018 s, elapsed        0.018 s
  Available memory per node after integrate ovlp matrix [GB]:     52.92
  Available memory per node after ASI_callbacks invoke [GB]:     52.92
  Deallocating overlap matrix.
  Available memory per node after save_overlap_scalapack [GB]:     52.92

  Updating Kohn-Sham eigenvalues and eigenvectors using ELSI and the ELPA eigensolver.
  Overlap matrix is not singular
  | Lowest and highest eigenvalues :  0.1659E-01,  0.2705E+01
  Finished singularity check of overlap matrix
  | Time :     0.000 s
  Starting ELPA eigensolver
  Finished Cholesky decomposition
  | Time :     0.000 s
  Finished transformation to standard eigenproblem
  | Time :     0.000 s
  Finished solving standard eigenproblem
  | Time :     0.001 s
  Finished back-transformation of eigenvectors
  | Time :     0.000 s

  Obtaining occupation numbers and electronic chemical potential using ELSI.
  | Note that, for insulating systems, the printed 'chemical potential' value is not uniquely defined.
  | It can be anywhere in the energy gap, as long as it correctly separates occupied and unoccupied states.
  | In systems with a gap, the physically relevant chemical potential is the VBM or HOMO.

  | Chemical potential (Fermi level):    -2.85222718 eV
  Available memory per node after advance_KS_solution [GB]:     52.92
  Writing Kohn-Sham eigenvalues.

  State    Occupation    Eigenvalue [Ha]    Eigenvalue [eV]
      1       2.00000         -19.031336         -517.86899
      2       2.00000          -1.093985          -29.76884
      3       2.00000          -0.623681          -16.97123
      4       2.00000          -0.507514          -13.81016
      5       2.00000          -0.434751          -11.83018
      6       0.00000          -0.049942           -1.35898
      7       0.00000           0.031956            0.86956
      8       0.00000           0.216001            5.87767
      9       0.00000           0.249458            6.78809
     10       0.00000           0.302944            8.24353
     11       0.00000           0.505715           13.76122

  Highest occupied state (VBM) at    -11.83018427 eV
  | Occupation number:      2.00000000

  Lowest unoccupied state (CBM) at    -1.35897880 eV
  | Occupation number:      0.00000000

  Overall HOMO-LUMO gap:     10.47120547 eV.
  Calculating total energy contributions from superposition of free atom densities.

  Total energy components:
  | Sum of eigenvalues            :         -43.38253392 Ha       -1180.49881099 eV
  | XC energy correction          :          -9.02253680 Ha        -245.51571800 eV
  | XC potential correction       :          11.60068872 Ha         315.67080129 eV
  | Free-atom electrostatic energy:         -35.73813987 Ha        -972.48426533 eV
  | Hartree energy correction     :          -0.00000000 Ha          -0.00000000 eV
  | Entropy correction            :          -0.00000000 Ha          -0.00000000 eV
  | ---------------------------
  | Total energy                  :         -76.54252186 Ha       -2082.82799304 eV
  | Total energy, T -> 0          :         -76.54252186 Ha       -2082.82799304 eV  <-- do not rely on this value for anything but (periodic) metals
  | Electronic free energy        :         -76.54252186 Ha       -2082.82799304 eV

  Derived energy quantities:
  | Kinetic energy                :          75.72139594 Ha        2060.48401984 eV
  | Electrostatic energy          :        -143.24138101 Ha       -3897.79629487 eV
  | Energy correction for multipole
  | error in Hartree potential    :           0.00000000 Ha           0.00000000 eV
  | Sum of eigenvalues per atom                           :        -393.49960366 eV
  | Total energy (T->0) per atom                          :        -694.27599768 eV  <-- do not rely on this value for anything but (periodic) metals
  | Electronic free energy per atom                       :        -694.27599768 eV
  
  --------------------------------------------
  Constructing auxiliary basis (full product) ...
  
  Product basis:
  | charge radius: extent of product basis function
  | field radius: extent of its Coulomb potential
  | Species   l  charge radius    field radius
  |    O      0     4.306578 A      4.306578 A
  |    O      0     4.359549 A      4.359549 A
  |    O      0     4.467453 A     14.097070 A
  |    O      0     4.522403 A     20.592800 A
  |    O      0     4.578029 A     22.987863 A
  |    O      0     4.578029 A     24.139906 A
  |    O      0     4.578029 A     24.737400 A
  |    O      0     4.578029 A     24.737400 A
  |    O      1     4.413171 A      5.635541 A
  |    O      1     4.467453 A     10.258611 A
  |    O      1     4.522403 A     19.136387 A
  |    O      1     4.578029 A     22.160057 A
  |    O      1     4.578029 A     23.846592 A
  |    O      1     4.578029 A     24.737400 A
  |    O      1     4.578029 A     25.041670 A
  |    O      2     4.413171 A      4.413171 A
  |    O      2     4.467453 A     14.270465 A
  |    O      2     4.522403 A     20.592800 A
  |    O      2     4.578029 A     22.987863 A
  |    O      2     4.578029 A     24.139906 A
  |    O      2     4.578029 A     25.041670 A
  |    O      3     3.498446 A     18.223130 A
  |    O      3     3.498446 A     21.890799 A
  |    O      3     3.541477 A     23.270614 A
  |    O      4     3.251020 A     21.624814 A
  |    H      0     4.472792 A     21.650655 A
  |    H      0     4.527807 A     23.584993 A
  |    H      0     4.527807 A     24.466028 A
  |    H      0     4.527807 A     24.466028 A
  |    H      1     3.958095 A     21.650655 A
  |    H      1     3.958095 A     23.298422 A
  |    H      1     3.958095 A     23.875088 A
  |    H      2     3.678162 A     23.015333 A

  | Shrink_full_auxil_basis : there are       33  radial auxiliary wave functions
                            accepted and      10 rejected.
  | Shrink_full_auxil_basis : there are totally                 125 partial auxiliary wave functions.
  prodbas_tasks_distribution_pbc not up to date - distributing tasks.

  | Maximal number of product basis functions per thread :    32    32

  | Number of local auxiliary basis funcs on node     0 :     32
  | Number of local auxiliary basis funcs on node     1 :     32
  | Number of local auxiliary basis funcs on node     2 :     32
  | Number of local auxiliary basis funcs on node     3 :     29
  Parallel distribution of product basis not up to date - distributing tasks.

  | Maximal number of product basis functions per thread :    32    32

  | Minimal total memory requirement for three-center overlap :       0.001 Gbs
  | Number of local auxiliary basis functions on task:      0    32
  | Number of local auxiliary basis functions on task:      1    32
  | Number of local auxiliary basis functions on task:      2    32
  | Number of local auxiliary basis functions on task:      3    29
  | 2D aux task distribution:      2 X      2
  | 2D block size (nb_aux_2d):     64
  | Task at    0 x    0 gets     64 x     64 entries of 2D aux
  | Task at    0 x    1 gets     64 x     61 entries of 2D aux
  | Task at    1 x    0 gets     61 x     64 entries of 2D aux
  | Task at    1 x    1 gets     61 x     61 entries of 2D aux
  Minimal free memory per node on init_fm entry [GB]:     52.90
  -----------------------------------------
  --- Initializing Fock matrix calculations
  -----------------------------------------
  screening_threshold (crit_val) =  0.000000100000
  coul_mat_threshold =  0.000000000100
  No atoms are split internally
  Number of super-cells in X Y Z:       0       0       0
  Number of atoms pairs total:            9
  Atom pair distribution:
  Cell:        0       0       0 atom pairs:        9
  sparsity of pfbvk:   1.00000000
  Number of atoms pairs in BvK cells:            9
  Max. memory consumption per node for Pulay mixing [GB]:      0.00
  Minimal total memory per node [GB]:     65.75
  Minimal free memory per node [GB]:     52.90
  --- Initializing LVL triples, type HSE
  | Storage requirements for basis-basbas products (processor-local):
  |   Species O: n_prodsfn:   211; storage:        6.59 MiB.
  |   Species H: n_prodsfn:    28; storage:        0.88 MiB.

  --- Initializing Coulomb matrix calculations, type HSE
  Preparing TB like auxiliary 2-center HSE-pot matrix
  SBT integration errors (all should be 'small'):
  large logFT aliasing -> increase N/lnrange
  large SBT aliasing -> decrease lnk0 & increase lnk0+lnrange
  large SBT ringing -> decrease lnr0 & increase lnr0+lnrange
  |            El't  L: logFT-al.   small-k   large-k   small-r   large-r
  | Need to store   869 splines of   315 points taking       2160 KiB.
  | Spline reduction from  4096 to   315 points by (cutting and)     1 x coarsening gives error:  0.00E+00
  | Maximum value outside interaction range:  5.35E-14
  Finished with initialize_tb_auxmat/lvl_triples, time:        0.298
  --- Calculating Coulomb matrices
  Upper limit for memory consumption per node [GB] for Coulomb matrices if no compression occurs:       0.000
  Upper limit for temporary arrays in Coulomb matrix initalization [GB]:      1.20
  Allocating        0.060 MB for aux_mat
  Min./max. time for Coulomb matrix computation [s]:      0.00      0.00
  Max. memory consumption per node for global Coulomb matrix [GB]:      0.00
  Time to calculate Coulomb Matrices   :        0.004
  After init_coulomb_tuned [GB]:     52.85
  Max. memory consumption per node for uncompressed ovlp3fn matrix [GB]:       0.000
  --- Calculating OVLP3FN
  --- Done calculating OVLP3FN, time:        0.208
  After init_ovlp3fn_tuned2 [GB]:     52.82
  Max. memory consumption per node for compressed global ovlp3fn matrix [GB]:      -0.002
  Atomic logSBT for 2-center HSE-pot matrix    :  max(cpu_time)    wall_clock(cpu1)
  | TB initialization                           :        0.150 s           0.151 s
  | TB usage                                    :        0.001 s           0.001 s

  Atomic logSBT for LVL-triples                :  max(cpu_time)    wall_clock(cpu1)
  | Multiplication with kernel                  :        0.001 s           0.000 s
  | Main matrix multiplication                  :        0.023 s           0.006 s
  | Analytic angular integration                :        0.001 s           0.000 s
  | Kernel construction                         :        0.002 s           0.000 s
  | Overall 2-center overlap time               :        0.028 s           0.007 s
  | 3-center preparation multiplications        :        0.002 s           0.002 s
  | 3-center preparation SBTs                   :        0.195 s           0.195 s
  | 3-center combinations                       :        0.029 s           0.009 s
  | Overal 3-center time                        :        0.205 s           0.206 s
  | LVL initialization                          :        0.147 s           0.147 s
  | Whole LVL-triples                           :        0.147 s           0.147 s

  Assumed free memory per node for Fock matrix prefactors [GB]     46.33
  Memory per instance for Coulomb / ovlp matrix [GB]      0.00     -0.00
  Number of nodes, tasks per node     1     4
  Number of instances:    1
  -----------------------------------------------------
  Dividing atoms among tasks for exact exchange energy:
  Atom:     1 Weight:   29904.
  Atom:     2 Weight:   2160.0
  Atom:     3 Weight:   2160.0

  Average weight per task:   8556.0

  Number of "big" (above average) atoms  :     1
  Number of "small" (below average) atoms:     2

  There are "big" and "small" atoms
  Reserving    1 tasks for "big" atoms
  Max. weight for big atoms:   29904.     small atoms:   2160.0
  Trying 2 tasks for "big" atoms:
  Max. weight for big atoms:   14952.     small atoms:   2160.0
  => Atom 1 gets 2 tasks
  Trying 3 tasks for "big" atoms:
  Max. weight for big atoms:   9968.0     small atoms:   4320.0
  => Atom 1 gets 3 tasks
  Using 1 tasks for "small" atoms, 3 for "big" atoms

  Atom division among tasks:
  Atom     1: (initial) task:     0, # of tasks:     3
  Atom     2: (initial) task:     3, # of tasks:     1
  Atom     3: (initial) task:     3, # of tasks:     1

  -----------------------------------------------------
  Task      0: my_n_atoms2:      1 my_atom_list:      1
  Task      1: my_n_atoms2:      1 my_atom_list:      1
  Task      2: my_n_atoms2:      1 my_atom_list:      1
  Task      3: my_n_atoms2:      2 my_atom_list:      2     3
  Task      0: my_n_atom_pairs:      1
  Task      1: my_n_atom_pairs:      1
  Task      2: my_n_atom_pairs:      1
  Task      3: my_n_atom_pairs:      6
  Transferring Coulomb matrix to final data layout
  Coulomb matrix communicaton time [s]    0.00
  Max. memory per node for ovlp3fn matrices:        0.000 GB
  Total memory for ovlp3fn matrices:        0.000 GB
  --- Done getting norm of OVLP3FN, time:        0.001
  Total memory for ovlp3fn matrices:        0.000 GB
  --- time for get_ovlp3fn:        0.005
  Max. memory consumption per node for Hartree Fock matrix [GB]      0.00
  Blocksize for Fock matrix computation:     8
  Minimal free memory per node after Fock matrix initialization [GB]:     52.83
  Initialize hartree_potential_storage
  Max. number of atoms included in rho_multipole:            3

  End scf initialization - timings             :  max(cpu_time)    wall_clock(cpu1)
  | Time for scf. initialization                :        0.710 s           0.712 s
  | Boundary condition initialization           :        0.008 s           0.007 s
  | Integration                                 :        0.016 s           0.016 s
  | Solution of K.-S. eqns.                     :        0.001 s           0.001 s
  | Grid partitioning                           :        0.006 s           0.006 s
  | Preloading free-atom quantities on grid     :        0.010 s           0.011 s
  | Free-atom superposition energy              :        0.004 s           0.003 s
  | Total energy evaluation                     :        0.000 s           0.000 s
  | Product basis setup: Total time             :        0.673 s           0.675 s

  Partial memory accounting:
  | Current value for overall tracked memory usage:
  |   Minimum:        0.042 MB (on task 3)
  |   Maximum:        0.146 MB (on task 0)
  |   Average:        0.075 MB
  | Peak value for overall tracked memory usage:
  |   Minimum:        0.140 MB (on task 3 after allocating d_aux_mat)
  |   Maximum:        0.351 MB (on task 0 after allocating d_aux_mat)
  |   Average:        0.214 MB
  | Largest tracked array allocation so far:
  |   Minimum:        0.081 MB (all_coords on task 3)
  |   Maximum:        0.133 MB (all_coords on task 0)
  |   Average:        0.100 MB
  Note:  These values currently only include a subset of arrays which are explicitly tracked.
  The "true" memory usage will be greater.
------------------------------------------------------------
  Available memory after initialize_scf [GB]:     52.83
  Available memory after allocating mixing [GB]:     52.83
  Evaluating new KS density.
  Integration grid: deviation in total charge (<rho> - N_e) =  -1.776357E-15

  Time for density update prior                :  max(cpu_time)    wall_clock(cpu1)
  | self-consistency iterative process          :        0.009 s           0.009 s
  Available memory before start of SCF loop [GB]:     52.83

------------------------------------------------------------
          Begin self-consistency iteration #    1

  Date     :  20240501, Time     :  140603.880
------------------------------------------------------------
  Pulay mixing of updated and previous charge densities.
  Available memory per node after mixing [GB]:     52.83
  Renormalizing the density to the exact electron count on the 3D integration grid.
  | Formal number of electrons (from input files) :      10.0000000000
  | Integrated number of electrons on 3D grid     :      10.0000000000
  | Charge integration error                      :       0.0000000000
  | Normalization factor for density and gradient :       1.0000000000

  Evaluating partitioned Hartree potential by multipole expansion.
  | Original multipole sum: apparent total charge =   0.819105E-14
  | Sum of charges compensated after spline to logarithmic grids =   0.121968E-04
  | Analytical far-field extrapolation by fixed multipoles:
  | Hartree multipole sum: apparent total charge =   0.809573E-14
  Summing up the Hartree potential.
  Time summed over all CPUs for potential: real work        0.006 s, elapsed        0.006 s
  | RMS charge density error from multipole expansion :   0.350855E-03

  Integrating Hamiltonian matrix: batch-based integration.
  Time summed over all CPUs for integration: real work        0.055 s, elapsed        0.056 s
  Max. memory consumption per node for dm_cols [GB]:      0.00
  Max. memory consumption per node for fock_matrix [GB]:      0.00
  Calculating non-local Hartree-Fock exchange by two-center RI (RI-LVL).
  screening_threshold (crit_val) =  0.000000100000
  Max. allocated memory per node for ovlp3fn_rcv [GB]:      0.00
  Max. allocated memory per node for fock_matrix_row [GB]:      0.00
  Max. memory consumption per node for m_ovlp_fact11 [GB]:      0.00
  Max. memory consumption per node for d_aux_mem [GB]:      0.00
  Max. memory consumption per node for dm_x_o3fn_aux [GB]:      0.00
  Max. allocated memory per node for tmp1/tmp2 [GB]:      0.00
   final impselect vector           4           3           6           1
   Time for autotuning:    2.3344309999999702E-003
  Exact exchange progress report - outermost block loop i_block: 1 ..       3
  |        1         2         3  
 Total ovlp3fn data transfer [GB]   1.2958720035385340E-003
  Average sparsity of tmp1/20.50000000
  Average sparsity of fock_matrix_row0.46744791
  Full exact exchange energy:     234.952229746574 eV.
  Detailed communication and barrier times:
  | Comm    0:        0.000       0.000       0.000       0.000       0.000       0.000       0.000       0.000       0.000       0.000
  | Comm    1:        0.000       0.000       0.000       0.000       0.000       0.000       0.000       0.000       0.000       0.000
  | Comm    2:        0.000       0.000       0.000       0.000       0.000       0.000       0.000       0.000       0.000       0.000
  | Comm    3:        0.000       0.000       0.000       0.000       0.000       0.000       0.000       0.000       0.000       0.000
  | Imbalance    0:        0.000       0.000       0.000       0.000       0.000       0.000       0.000       0.000       0.000       0.000
  | Imbalance    1:        0.000       0.000       0.000       0.000       0.000       0.000       0.000       0.000       0.000       0.000
  | Imbalance    2:        0.000       0.000       0.000       0.000       0.000       0.000       0.000       0.000       0.000       0.000
  | Imbalance    3:        0.000       0.000       0.000       0.000       0.001       0.000       0.000       0.000       0.000       0.000
  Times            DM_x_o3fn   CM_prod_1   CM_prod_2   tmp2_prod        Sync   Imbalance       Other  Total calc
  | Times    0:        0.000       0.000       0.000       0.000       0.000       0.000       0.013       0.015
  | Times    1:        0.000       0.000       0.000       0.000       0.000       0.001       0.013       0.015
  | Times    2:        0.000       0.000       0.000       0.000       0.000       0.001       0.013       0.015
  | Times    3:        0.000       0.000       0.000       0.000       0.000       0.001       0.013       0.015
  | Times  sum:        0.001       0.001       0.000       0.000       0.001       0.002       0.053       0.058

  Decomposition of Other based on code block (only on MPI task 0):
  Times             Block #1    Block #2    Block #3    Block #4    Block #5    Block #6    Block #7    Block #8
  | Times    0:        0.000       0.000       0.000       0.000       0.000       0.000       0.000       0.000

  Times             Block #9   Block #10   Block #11   Block #12   Block #13   Block #14   Block #15   Block #16
  | Times    0:        0.000       0.000       0.000       0.011       0.000       0.001       0.000       0.000

  Times            Block Sum    Expected
  | Times    0:        0.013       0.013
  Time for Fock matrix mixing     0.000

  Updating Kohn-Sham eigenvalues and eigenvectors using ELSI and the ELPA eigensolver.
  Starting ELPA eigensolver
  Finished transformation to standard eigenproblem
  | Time :     0.000 s
  Finished solving standard eigenproblem
  | Time :     0.000 s
  Finished back-transformation of eigenvectors
  | Time :     0.000 s

  Obtaining occupation numbers and electronic chemical potential using ELSI.
  | Note that, for insulating systems, the printed 'chemical potential' value is not uniquely defined.
  | It can be anywhere in the energy gap, as long as it correctly separates occupied and unoccupied states.
  | In systems with a gap, the physically relevant chemical potential is the VBM or HOMO.

  | Chemical potential (Fermi level):    -1.76510851 eV
  Writing Kohn-Sham eigenvalues.

  State    Occupation    Eigenvalue [Ha]    Eigenvalue [eV]
      1       2.00000         -19.442022         -529.04434
      2       2.00000          -1.190558          -32.39673
      3       2.00000          -0.672059          -18.28765
      4       2.00000          -0.560729          -15.25820
      5       2.00000          -0.490761          -13.35430
      6       0.00000          -0.018729           -0.50963
      7       0.00000           0.072272            1.96662
      8       0.00000           0.251283            6.83776
      9       0.00000           0.284365            7.73795
     10       0.00000           0.336514            9.15701
     11       0.00000           0.560203           15.24390

  Highest occupied state (VBM) at    -13.35429944 eV
  | Occupation number:      2.00000000

  Lowest unoccupied state (CBM) at    -0.50963263 eV
  | Occupation number:      0.00000000

  Overall HOMO-LUMO gap:     12.84466681 eV.

  Total energy components:
  | Sum of eigenvalues            :         -44.71225825 Ha       -1216.68245122 eV
  | XC energy correction          :          -4.86603701 Ha        -132.41160401 eV
  | XC potential correction       :           8.99171137 Ha         244.67691531 eV
  | Free-atom electrostatic energy:         -35.73813987 Ha        -972.48426533 eV
  | Hartree energy correction     :          -0.21892200 Ha          -5.95717083 eV
  | Entropy correction            :          -0.00000000 Ha          -0.00000000 eV
  | ---------------------------
  | Total energy                  :         -76.54364577 Ha       -2082.85857607 eV
  | Total energy, T -> 0          :         -76.54364577 Ha       -2082.85857607 eV  <-- do not rely on this value for anything but (periodic) metals
  | Electronic free energy        :         -76.54364577 Ha       -2082.85857607 eV

  Derived energy quantities:
  | Kinetic energy                :          75.99465007 Ha        2067.91964298 eV
  | Electrostatic energy          :        -143.35356183 Ha       -3900.84889051 eV
  | Energy correction for multipole
  | error in Hartree potential    :           0.00010879 Ha           0.00296042 eV
  | Sum of eigenvalues per atom                           :        -405.56081707 eV
  | Total energy (T->0) per atom                          :        -694.28619202 eV  <-- do not rely on this value for anything but (periodic) metals
  | Electronic free energy per atom                       :        -694.28619202 eV
  Evaluating new KS density.
  Integration grid: deviation in total charge (<rho> - N_e) =   0.000000E+00

  Self-consistency convergence accuracy:
  | Change of charge density      :  0.3061E+00
  | Change of unmixed KS density  :  0.9128E+01
  | Change of sum of eigenvalues  : -0.3618E+02 eV
  | Change of total energy        : -0.3058E-01 eV


------------------------------------------------------------
  End self-consistency iteration #     1       :  max(cpu_time)    wall_clock(cpu1)
  | Time for this iteration                     :        0.048 s           0.047 s
  | Charge density update                       :        0.009 s           0.008 s
  | Density mixing                              :        0.000 s           0.000 s
  | Hartree multipole update                    :        0.001 s           0.001 s
  | Hartree multipole summation                 :        0.006 s           0.006 s
  | Integration                                 :        0.014 s           0.014 s
  | Fock matrix evaluation                      :        0.017 s           0.017 s
  | Solution of K.-S. eqns.                     :        0.000 s           0.001 s
  | Total energy evaluation                     :        0.000 s           0.000 s

  Partial memory accounting:
  | Current value for overall tracked memory usage:
  |   Minimum:        2.274 MB (on task 2)
  |   Maximum:        2.344 MB (on task 0)
  |   Average:        2.292 MB
  | Peak value for overall tracked memory usage:
  |   Minimum:        2.349 MB (on task 3 after allocating gradient_basis_wave)
  |   Maximum:        2.429 MB (on task 0 after allocating gradient_basis_wave)
  |   Average:        2.374 MB
  | Largest tracked array allocation so far:
  |   Minimum:        0.723 MB (previous_rho_gradient_diff on task 0)
  |   Maximum:        0.734 MB (previous_rho_gradient_diff on task 3)
  |   Average:        0.729 MB
  Note:  These values currently only include a subset of arrays which are explicitly tracked.
  The "true" memory usage will be greater.
------------------------------------------------------------

------------------------------------------------------------
          Begin self-consistency iteration #    2

  Date     :  20240501, Time     :  140603.928
------------------------------------------------------------
  Pulay mixing of updated and previous charge densities.
  Available memory per node after mixing [GB]:     52.83
  Renormalizing the density to the exact electron count on the 3D integration grid.
  | Formal number of electrons (from input files) :      10.0000000000
  | Integrated number of electrons on 3D grid     :      10.0000000000
  | Charge integration error                      :       0.0000000000
  | Normalization factor for density and gradient :       1.0000000000

  Evaluating partitioned Hartree potential by multipole expansion.
  | Original multipole sum: apparent total charge =   0.139715E-13
  | Sum of charges compensated after spline to logarithmic grids =   0.233290E-03
  | Analytical far-field extrapolation by fixed multipoles:
  | Hartree multipole sum: apparent total charge =   0.137747E-13
  Summing up the Hartree potential.
  Time summed over all CPUs for potential: real work        0.006 s, elapsed        0.006 s
  | RMS charge density error from multipole expansion :   0.681506E-02

  Integrating Hamiltonian matrix: batch-based integration.
  Time summed over all CPUs for integration: real work        0.056 s, elapsed        0.057 s
  Calculating non-local Hartree-Fock exchange by two-center RI (RI-LVL).
  screening_threshold (crit_val) =  0.000000100000
  Exact exchange progress report - outermost block loop i_block: 1 ..       3
  |        1         2         3  
 Total ovlp3fn data transfer [GB]   5.4758400074206293E-004
  Average sparsity of tmp1/20.50000000
  Average sparsity of fock_matrix_row0.46744791
  Full exact exchange energy:     235.121197906952 eV.
  Times            DM_x_o3fn   CM_prod_1   CM_prod_2   tmp2_prod        Sync   Imbalance       Other  Total calc
  | Times    0:        0.000       0.000       0.000       0.000       0.000       0.000       0.013       0.015
  | Times    1:        0.000       0.000       0.000       0.000       0.000       0.001       0.013       0.015
  | Times    2:        0.000       0.000       0.000       0.000       0.000       0.001       0.013       0.015
  | Times    3:        0.000       0.000       0.000       0.000       0.000       0.001       0.013       0.015
  | Times  sum:        0.001       0.001       0.000       0.000       0.001       0.002       0.053       0.058

  Decomposition of Other based on code block (only on MPI task 0):
  Times             Block #1    Block #2    Block #3    Block #4    Block #5    Block #6    Block #7    Block #8
  | Times    0:        0.000       0.000       0.000       0.000       0.000       0.000       0.000       0.000

  Times             Block #9   Block #10   Block #11   Block #12   Block #13   Block #14   Block #15   Block #16
  | Times    0:        0.000       0.000       0.000       0.011       0.000       0.001       0.000       0.000

  Times            Block Sum    Expected
  | Times    0:        0.013       0.013
  Time for Fock matrix mixing     0.000

  Updating Kohn-Sham eigenvalues and eigenvectors using ELSI and the ELPA eigensolver.
  Starting ELPA eigensolver
  Finished transformation to standard eigenproblem
  | Time :     0.000 s
  Finished solving standard eigenproblem
  | Time :     0.001 s
  Finished back-transformation of eigenvectors
  | Time :     0.000 s

  Obtaining occupation numbers and electronic chemical potential using ELSI.
  | Note that, for insulating systems, the printed 'chemical potential' value is not uniquely defined.
  | It can be anywhere in the energy gap, as long as it correctly separates occupied and unoccupied states.
  | In systems with a gap, the physically relevant chemical potential is the VBM or HOMO.

  | Chemical potential (Fermi level):    -2.42703155 eV
  Highest occupied state (VBM) at     -3.97501064 eV
  | Occupation number:      2.00000000

  Lowest unoccupied state (CBM) at     1.69344822 eV
  | Occupation number:      0.00000000

  Overall HOMO-LUMO gap:      5.66845886 eV.

  Checking to see if s.c.f. parameters should be adjusted.
  The system likely has a gap. Increased the default Pulay mixing parameter (charge_mix_param). Value:   0.200000 .
  Kept the default occupation width. Value:   0.010000 eV.

  Total energy components:
  | Sum of eigenvalues            :         -40.73090992 Ha       -1108.34445074 eV
  | XC energy correction          :          -5.37862455 Ha        -146.35982076 eV
  | XC potential correction       :           9.49043213 Ha         258.24779778 eV
  | Free-atom electrostatic energy:         -35.73813987 Ha        -972.48426533 eV
  | Hartree energy correction     :          -4.39078308 Ha        -119.47928664 eV
  | Entropy correction            :          -0.00000000 Ha          -0.00000000 eV
  | ---------------------------
  | Total energy                  :         -76.74802529 Ha       -2088.42002570 eV
  | Total energy, T -> 0          :         -76.74802529 Ha       -2088.42002570 eV  <-- do not rely on this value for anything but (periodic) metals
  | Electronic free energy        :         -76.74802529 Ha       -2088.42002570 eV

  Derived energy quantities:
  | Kinetic energy                :          77.87902728 Ha        2119.19615578 eV
  | Electrostatic energy          :        -145.19115299 Ha       -3950.85229006 eV
  | Energy correction for multipole
  | error in Hartree potential    :           0.00185626 Ha           0.05051132 eV
  | Sum of eigenvalues per atom                           :        -369.44815025 eV
  | Total energy (T->0) per atom                          :        -696.14000857 eV  <-- do not rely on this value for anything but (periodic) metals
  | Electronic free energy per atom                       :        -696.14000857 eV
  Evaluating new KS density.
  Integration grid: deviation in total charge (<rho> - N_e) =   0.000000E+00

  Self-consistency convergence accuracy:
  | Change of charge density      :  0.2934E+00
  | Change of unmixed KS density  :  0.7094E-02
  | Change of sum of eigenvalues  :  0.1083E+03 eV
  | Change of total energy        : -0.5561E+01 eV


------------------------------------------------------------
  End self-consistency iteration #     2       :  max(cpu_time)    wall_clock(cpu1)
  | Time for this iteration                     :        0.046 s           0.046 s
  | Charge density update                       :        0.009 s           0.009 s
  | Density mixing                              :        0.001 s           0.000 s
  | Hartree multipole update                    :        0.001 s           0.001 s
  | Hartree multipole summation                 :        0.006 s           0.006 s
  | Integration                                 :        0.014 s           0.015 s
  | Fock matrix evaluation                      :        0.015 s           0.014 s
  | Solution of K.-S. eqns.                     :        0.000 s           0.001 s
  | Total energy evaluation                     :        0.000 s           0.000 s

  Partial memory accounting:
  | Current value for overall tracked memory usage:
  |   Minimum:        2.275 MB (on task 2)
  |   Maximum:        2.345 MB (on task 0)
  |   Average:        2.293 MB
  | Peak value for overall tracked memory usage:
  |   Minimum:        2.350 MB (on task 3 after allocating gradient_basis_wave)
  |   Maximum:        2.430 MB (on task 0 after allocating gradient_basis_wave)
  |   Average:        2.375 MB
  | Largest tracked array allocation so far:
  |   Minimum:        0.723 MB (previous_rho_gradient_diff on task 0)
  |   Maximum:        0.734 MB (previous_rho_gradient_diff on task 3)
  |   Average:        0.729 MB
  Note:  These values currently only include a subset of arrays which are explicitly tracked.
  The "true" memory usage will be greater.
------------------------------------------------------------

------------------------------------------------------------
          Begin self-consistency iteration #    3

  Date     :  20240501, Time     :  140603.974
------------------------------------------------------------
  Pulay mixing of updated and previous charge densities.
  Available memory per node after mixing [GB]:     52.83
  Renormalizing the density to the exact electron count on the 3D integration grid.
  | Formal number of electrons (from input files) :      10.0000000000
  | Integrated number of electrons on 3D grid     :      10.0000000000
  | Charge integration error                      :       0.0000000000
  | Normalization factor for density and gradient :       1.0000000000

  Evaluating partitioned Hartree potential by multipole expansion.
  | Original multipole sum: apparent total charge =   0.137501E-13
  | Sum of charges compensated after spline to logarithmic grids =   0.102344E-03
  | Analytical far-field extrapolation by fixed multipoles:
  | Hartree multipole sum: apparent total charge =   0.132090E-13
  Summing up the Hartree potential.
  Time summed over all CPUs for potential: real work        0.006 s, elapsed        0.006 s
  | RMS charge density error from multipole expansion :   0.328884E-02

  Integrating Hamiltonian matrix: batch-based integration.
  Time summed over all CPUs for integration: real work        0.056 s, elapsed        0.056 s
  Calculating non-local Hartree-Fock exchange by two-center RI (RI-LVL).
  screening_threshold (crit_val) =  0.000000100000
  Exact exchange progress report - outermost block loop i_block: 1 ..       3
  |        1         2         3  
 Total ovlp3fn data transfer [GB]   5.4758400074206293E-004
  Average sparsity of tmp1/20.50000000
  Average sparsity of fock_matrix_row0.46744791
  Full exact exchange energy:     212.803491718044 eV.
  Times            DM_x_o3fn   CM_prod_1   CM_prod_2   tmp2_prod        Sync   Imbalance       Other  Total calc
  | Times    0:        0.000       0.000       0.000       0.000       0.000       0.000       0.013       0.014
  | Times    1:        0.000       0.000       0.000       0.000       0.000       0.001       0.013       0.014
  | Times    2:        0.000       0.000       0.000       0.000       0.000       0.001       0.013       0.014
  | Times    3:        0.000       0.000       0.000       0.000       0.000       0.001       0.013       0.014
  | Times  sum:        0.001       0.001       0.000       0.000       0.001       0.002       0.052       0.058

  Decomposition of Other based on code block (only on MPI task 0):
  Times             Block #1    Block #2    Block #3    Block #4    Block #5    Block #6    Block #7    Block #8
  | Times    0:        0.000       0.000       0.000       0.000       0.000       0.000       0.000       0.000

  Times             Block #9   Block #10   Block #11   Block #12   Block #13   Block #14   Block #15   Block #16
  | Times    0:        0.000       0.000       0.000       0.011       0.000       0.001       0.000       0.000

  Times            Block Sum    Expected
  | Times    0:        0.013       0.013
  Time for Fock matrix mixing     0.000

  Updating Kohn-Sham eigenvalues and eigenvectors using ELSI and the ELPA eigensolver.
  Starting ELPA eigensolver
  Finished transformation to standard eigenproblem
  | Time :     0.000 s
  Finished solving standard eigenproblem
  | Time :     0.000 s
  Finished back-transformation of eigenvectors
  | Time :     0.000 s

  Obtaining occupation numbers and electronic chemical potential using ELSI.
  | Note that, for insulating systems, the printed 'chemical potential' value is not uniquely defined.
  | It can be anywhere in the energy gap, as long as it correctly separates occupied and unoccupied states.
  | In systems with a gap, the physically relevant chemical potential is the VBM or HOMO.

  | Chemical potential (Fermi level):    -0.41222875 eV
  Highest occupied state (VBM) at     -9.33948214 eV
  | Occupation number:      2.00000000

  Lowest unoccupied state (CBM) at     0.31274950 eV
  | Occupation number:      0.00000000

  Overall HOMO-LUMO gap:      9.65223164 eV.

  Total energy components:
  | Sum of eigenvalues            :         -43.09659453 Ha       -1172.71800451 eV
  | XC energy correction          :          -5.05579017 Ha        -137.57505017 eV
  | XC potential correction       :           9.17582622 Ha         249.68693539 eV
  | Free-atom electrostatic energy:         -35.73813987 Ha        -972.48426533 eV
  | Hartree energy correction     :          -1.79033590 Ha         -48.71751844 eV
  | Entropy correction            :          -0.00000000 Ha          -0.00000000 eV
  | ---------------------------
  | Total energy                  :         -76.50503425 Ha       -2081.80790307 eV
  | Total energy, T -> 0          :         -76.50503425 Ha       -2081.80790307 eV  <-- do not rely on this value for anything but (periodic) metals
  | Electronic free energy        :         -76.50503425 Ha       -2081.80790307 eV

  Derived energy quantities:
  | Kinetic energy                :          76.78567772 Ha        2089.44460046 eV
  | Electrostatic energy          :        -144.01371326 Ha       -3918.81252492 eV
  | Energy correction for multipole
  | error in Hartree potential    :           0.00015846 Ha           0.00431204 eV
  | Sum of eigenvalues per atom                           :        -390.90600150 eV
  | Total energy (T->0) per atom                          :        -693.93596769 eV  <-- do not rely on this value for anything but (periodic) metals
  | Electronic free energy per atom                       :        -693.93596769 eV
  Evaluating new KS density.
  Integration grid: deviation in total charge (<rho> - N_e) =   1.065814E-14

  Self-consistency convergence accuracy:
  | Change of charge density      :  0.5244E+00
  | Change of unmixed KS density  :  0.5366E+00
  | Change of sum of eigenvalues  : -0.6437E+02 eV
  | Change of total energy        :  0.6612E+01 eV


------------------------------------------------------------
  End self-consistency iteration #     3       :  max(cpu_time)    wall_clock(cpu1)
  | Time for this iteration                     :        0.046 s           0.046 s
  | Charge density update                       :        0.009 s           0.009 s
  | Density mixing                              :        0.001 s           0.001 s
  | Hartree multipole update                    :        0.001 s           0.001 s
  | Hartree multipole summation                 :        0.006 s           0.006 s
  | Integration                                 :        0.014 s           0.014 s
  | Fock matrix evaluation                      :        0.014 s           0.015 s
  | Solution of K.-S. eqns.                     :        0.000 s           0.000 s
  | Total energy evaluation                     :        0.000 s           0.000 s

  Partial memory accounting:
  | Current value for overall tracked memory usage:
  |   Minimum:        2.276 MB (on task 2)
  |   Maximum:        2.346 MB (on task 0)
  |   Average:        2.293 MB
  | Peak value for overall tracked memory usage:
  |   Minimum:        2.350 MB (on task 3 after allocating gradient_basis_wave)
  |   Maximum:        2.430 MB (on task 0 after allocating gradient_basis_wave)
  |   Average:        2.375 MB
  | Largest tracked array allocation so far:
  |   Minimum:        0.723 MB (previous_rho_gradient_diff on task 0)
  |   Maximum:        0.734 MB (previous_rho_gradient_diff on task 3)
  |   Average:        0.729 MB
  Note:  These values currently only include a subset of arrays which are explicitly tracked.
  The "true" memory usage will be greater.
------------------------------------------------------------

------------------------------------------------------------
          Begin self-consistency iteration #    4

  Date     :  20240501, Time     :  140604.020
------------------------------------------------------------
  Pulay mixing of updated and previous charge densities.
  Available memory per node after mixing [GB]:     52.83
  Renormalizing the density to the exact electron count on the 3D integration grid.
  | Formal number of electrons (from input files) :      10.0000000000
  | Integrated number of electrons on 3D grid     :      10.0000000000
  | Charge integration error                      :       0.0000000000
  | Normalization factor for density and gradient :       1.0000000000

  Evaluating partitioned Hartree potential by multipole expansion.
  | Original multipole sum: apparent total charge =   0.174644E-13
  | Sum of charges compensated after spline to logarithmic grids =   0.213170E-03
  | Analytical far-field extrapolation by fixed multipoles:
  | Hartree multipole sum: apparent total charge =   0.171446E-13
  Summing up the Hartree potential.
  Time summed over all CPUs for potential: real work        0.006 s, elapsed        0.006 s
  | RMS charge density error from multipole expansion :   0.835557E-02

  Integrating Hamiltonian matrix: batch-based integration.
  Time summed over all CPUs for integration: real work        0.054 s, elapsed        0.055 s
  Calculating non-local Hartree-Fock exchange by two-center RI (RI-LVL).
  screening_threshold (crit_val) =  0.000000100000
  Exact exchange progress report - outermost block loop i_block: 1 ..       3
  |        1         2         3  
 Total ovlp3fn data transfer [GB]   5.4758400074206293E-004
  Average sparsity of tmp1/20.50000000
  Average sparsity of fock_matrix_row0.46744791
  Full exact exchange energy:     226.862576345264 eV.
  Times            DM_x_o3fn   CM_prod_1   CM_prod_2   tmp2_prod        Sync   Imbalance       Other  Total calc
  | Times    0:        0.000       0.000       0.000       0.000       0.000       0.000       0.014       0.015
  | Times    1:        0.000       0.000       0.000       0.000       0.000       0.001       0.013       0.015
  | Times    2:        0.000       0.000       0.000       0.000       0.000       0.001       0.013       0.015
  | Times    3:        0.000       0.000       0.000       0.000       0.000       0.001       0.013       0.015
  | Times  sum:        0.001       0.001       0.000       0.000       0.001       0.002       0.054       0.059

  Decomposition of Other based on code block (only on MPI task 0):
  Times             Block #1    Block #2    Block #3    Block #4    Block #5    Block #6    Block #7    Block #8
  | Times    0:        0.000       0.000       0.000       0.000       0.000       0.000       0.000       0.000

  Times             Block #9   Block #10   Block #11   Block #12   Block #13   Block #14   Block #15   Block #16
  | Times    0:        0.000       0.000       0.000       0.011       0.000       0.001       0.000       0.000

  Times            Block Sum    Expected
  | Times    0:        0.013       0.014
  Time for Fock matrix mixing     0.000

  Updating Kohn-Sham eigenvalues and eigenvectors using ELSI and the ELPA eigensolver.
  Starting ELPA eigensolver
  Finished transformation to standard eigenproblem
  | Time :     0.000 s
  Finished solving standard eigenproblem
  | Time :     0.000 s
  Finished back-transformation of eigenvectors
  | Time :     0.000 s

  Obtaining occupation numbers and electronic chemical potential using ELSI.
  | Note that, for insulating systems, the printed 'chemical potential' value is not uniquely defined.
  | It can be anywhere in the energy gap, as long as it correctly separates occupied and unoccupied states.
  | In systems with a gap, the physically relevant chemical potential is the VBM or HOMO.

  | Chemical potential (Fermi level):     0.67903300 eV
  Highest occupied state (VBM) at     -7.47550231 eV
  | Occupation number:      2.00000000

  Lowest unoccupied state (CBM) at     1.17089507 eV
  | Occupation number:      0.00000000

  Overall HOMO-LUMO gap:      8.64639739 eV.

  Total energy components:
  | Sum of eigenvalues            :         -42.57376838 Ha       -1158.49118110 eV
  | XC energy correction          :          -5.16003185 Ha        -140.41161083 eV
  | XC potential correction       :           9.24541256 Ha         251.58047604 eV
  | Free-atom electrostatic energy:         -35.73813987 Ha        -972.48426533 eV
  | Hartree energy correction     :          -2.25641966 Ha         -61.40030286 eV
[...]
  | Electronic free energy per atom                       :        -693.66693841 eV
  Evaluating new KS density.
  Integration grid: deviation in total charge (<rho> - N_e) =   8.881784E-15

  Self-consistency convergence accuracy:
  | Change of charge density      :  0.1107E-04
  | Change of unmixed KS density  :  0.1286E-04
  | Change of sum of eigenvalues  : -0.8612E-04 eV
  | Change of total energy        :  0.7186E-04 eV


------------------------------------------------------------
  End self-consistency iteration #    13       :  max(cpu_time)    wall_clock(cpu1)
  | Time for this iteration                     :        0.047 s           0.047 s
  | Charge density update                       :        0.009 s           0.008 s
  | Density mixing                              :        0.002 s           0.002 s
  | Hartree multipole update                    :        0.001 s           0.001 s
  | Hartree multipole summation                 :        0.006 s           0.006 s
  | Integration                                 :        0.014 s           0.014 s
  | Fock matrix evaluation                      :        0.014 s           0.015 s
  | Solution of K.-S. eqns.                     :        0.000 s           0.000 s
  | Total energy evaluation                     :        0.000 s           0.001 s

  Partial memory accounting:
  | Current value for overall tracked memory usage:
  |   Minimum:        2.277 MB (on task 2)
  |   Maximum:        2.347 MB (on task 0)
  |   Average:        2.295 MB
  | Peak value for overall tracked memory usage:
  |   Minimum:        2.352 MB (on task 3 after allocating gradient_basis_wave)
  |   Maximum:        2.432 MB (on task 0 after allocating gradient_basis_wave)
  |   Average:        2.377 MB
  | Largest tracked array allocation so far:
  |   Minimum:        0.723 MB (previous_rho_gradient_diff on task 0)
  |   Maximum:        0.734 MB (previous_rho_gradient_diff on task 3)
  |   Average:        0.729 MB
  Note:  These values currently only include a subset of arrays which are explicitly tracked.
  The "true" memory usage will be greater.
------------------------------------------------------------

------------------------------------------------------------
          Begin self-consistency iteration #   14

  Date     :  20240501, Time     :  140604.498
------------------------------------------------------------
  Pulay mixing of updated and previous charge densities.
  Available memory per node after mixing [GB]:     52.84
  Renormalizing the density to the exact electron count on the 3D integration grid.
  | Formal number of electrons (from input files) :      10.0000000000
  | Integrated number of electrons on 3D grid     :      10.0000000000
  | Charge integration error                      :       0.0000000000
  | Normalization factor for density and gradient :       1.0000000000

  Evaluating partitioned Hartree potential by multipole expansion.
  | Original multipole sum: apparent total charge =   0.122989E-13
  | Sum of charges compensated after spline to logarithmic grids =   0.166201E-03
  | Analytical far-field extrapolation by fixed multipoles:
  | Hartree multipole sum: apparent total charge =   0.118069E-13
  Summing up the Hartree potential.
  Time summed over all CPUs for potential: real work        0.006 s, elapsed        0.006 s
  | RMS charge density error from multipole expansion :   0.663061E-02

  Integrating Hamiltonian matrix: batch-based integration.
  Time summed over all CPUs for integration: real work        0.056 s, elapsed        0.056 s
  Calculating non-local Hartree-Fock exchange by two-center RI (RI-LVL).
  screening_threshold (crit_val) =  0.000000100000
  Exact exchange progress report - outermost block loop i_block: 1 ..       3
  |        1         2         3  
 Total ovlp3fn data transfer [GB]   5.4758400074206293E-004
  Average sparsity of tmp1/20.50000000
  Average sparsity of fock_matrix_row0.46744791
  Full exact exchange energy:     225.950060665161 eV.
  Times            DM_x_o3fn   CM_prod_1   CM_prod_2   tmp2_prod        Sync   Imbalance       Other  Total calc
  | Times    0:        0.000       0.000       0.000       0.000       0.000       0.000       0.013       0.014
  | Times    1:        0.000       0.000       0.000       0.000       0.000       0.001       0.013       0.014
  | Times    2:        0.000       0.000       0.000       0.000       0.000       0.001       0.013       0.014
  | Times    3:        0.000       0.000       0.000       0.000       0.000       0.001       0.013       0.014
  | Times  sum:        0.001       0.001       0.000       0.000       0.001       0.002       0.052       0.058

  Decomposition of Other based on code block (only on MPI task 0):
  Times             Block #1    Block #2    Block #3    Block #4    Block #5    Block #6    Block #7    Block #8
  | Times    0:        0.000       0.000       0.000       0.000       0.000       0.000       0.000       0.000

  Times             Block #9   Block #10   Block #11   Block #12   Block #13   Block #14   Block #15   Block #16
  | Times    0:        0.000       0.000       0.000       0.011       0.000       0.001       0.000       0.000

  Times            Block Sum    Expected
  | Times    0:        0.013       0.013
  Time for Fock matrix mixing     0.000

  Updating Kohn-Sham eigenvalues and eigenvectors using ELSI and the ELPA eigensolver.
  Starting ELPA eigensolver
  Finished transformation to standard eigenproblem
  | Time :     0.000 s
  Finished solving standard eigenproblem
  | Time :     0.000 s
  Finished back-transformation of eigenvectors
  | Time :     0.000 s

  Obtaining occupation numbers and electronic chemical potential using ELSI.
  | Note that, for insulating systems, the printed 'chemical potential' value is not uniquely defined.
  | It can be anywhere in the energy gap, as long as it correctly separates occupied and unoccupied states.
  | In systems with a gap, the physically relevant chemical potential is the VBM or HOMO.

  | Chemical potential (Fermi level):     0.06751361 eV
  Highest occupied state (VBM) at     -8.57315310 eV
  | Occupation number:      2.00000000

  Lowest unoccupied state (CBM) at     0.63100928 eV
  | Occupation number:      0.00000000

  Overall HOMO-LUMO gap:      9.20416239 eV.

  Total energy components:
  | Sum of eigenvalues            :         -42.97687565 Ha       -1169.46028792 eV
  | XC energy correction          :          -5.10150103 Ha        -138.81890616 eV
  | XC potential correction       :           9.18975512 Ha         250.06596010 eV
  | Free-atom electrostatic energy:         -35.73813987 Ha        -972.48426533 eV
  | Hartree energy correction     :          -1.84861266 Ha         -50.30330990 eV
  | Entropy correction            :          -0.00000000 Ha          -0.00000000 eV
  | ---------------------------
  | Total energy                  :         -76.47537409 Ha       -2081.00080921 eV
  | Total energy, T -> 0          :         -76.47537409 Ha       -2081.00080921 eV  <-- do not rely on this value for anything but (periodic) metals
  | Electronic free energy        :         -76.47537409 Ha       -2081.00080921 eV

  Derived energy quantities:
  | Kinetic energy                :          76.31011889 Ha        2076.50398644 eV
  | Electrostatic energy          :        -143.53223601 Ha       -3905.71086233 eV
  | Energy correction for multipole
  | error in Hartree potential    :          -0.00356539 Ha          -0.09701909 eV
  | Sum of eigenvalues per atom                           :        -389.82009597 eV
  | Total energy (T->0) per atom                          :        -693.66693640 eV  <-- do not rely on this value for anything but (periodic) metals
  | Electronic free energy per atom                       :        -693.66693640 eV

  Self-consistency convergence accuracy:
  | Change of charge density      :  0.3803E-06
  | Change of unmixed KS density  :  0.3105E-05
  | Change of sum of eigenvalues  :  0.3741E-04 eV
  | Change of total energy        :  0.6018E-05 eV

  Writing Kohn-Sham eigenvalues.

  State    Occupation    Eigenvalue [Ha]    Eigenvalue [eV]
      1       2.00000         -19.225081         -523.14108
      2       2.00000          -1.024015          -27.86488
      3       2.00000          -0.530868          -14.44567
      4       2.00000          -0.393415          -10.70536
      5       2.00000          -0.315058           -8.57315
      6       0.00000           0.023189            0.63101
      7       0.00000           0.128244            3.48971
      8       0.00000           0.329532            8.96703
      9       0.00000           0.367103            9.98937
     10       0.00000           0.397328           10.81186
     11       0.00000           0.622725           16.94521

  Highest occupied state (VBM) at     -8.57315310 eV
  | Occupation number:      2.00000000

  Lowest unoccupied state (CBM) at     0.63100928 eV
  | Occupation number:      0.00000000

  Overall HOMO-LUMO gap:      9.20416239 eV.

  | Chemical Potential                          :     0.06751361 eV
  | Note that, for insulating systems, the printed 'chemical potential' value is not uniquely defined.
  | It can be anywhere in the energy gap, as long as it correctly separates occupied and unoccupied states.
  | In systems with a gap, the physically relevant chemical potential is the VBM or HOMO.

  Self-consistency cycle converged.


------------------------------------------------------------
  End self-consistency iteration #    14       :  max(cpu_time)    wall_clock(cpu1)
  | Time for this iteration                     :        0.039 s           0.039 s
  | Charge density update                       :        0.000 s           0.000 s
  | Density mixing                              :        0.002 s           0.003 s
  | Hartree multipole update                    :        0.001 s           0.001 s
  | Hartree multipole summation                 :        0.006 s           0.006 s
  | Integration                                 :        0.014 s           0.014 s
  | Fock matrix evaluation                      :        0.014 s           0.015 s
  | Solution of K.-S. eqns.                     :        0.000 s           0.000 s
  | Total energy evaluation                     :        0.000 s           0.000 s

  Partial memory accounting:
  | Current value for overall tracked memory usage:
  |   Minimum:        2.277 MB (on task 2)
  |   Maximum:        2.347 MB (on task 0)
  |   Average:        2.295 MB
  | Peak value for overall tracked memory usage:
  |   Minimum:        2.352 MB (on task 3 after allocating gradient_basis_wave)
  |   Maximum:        2.432 MB (on task 0 after allocating gradient_basis_wave)
  |   Average:        2.377 MB
  | Largest tracked array allocation so far:
  |   Minimum:        0.723 MB (previous_rho_gradient_diff on task 0)
  |   Maximum:        0.734 MB (previous_rho_gradient_diff on task 3)
  |   Average:        0.729 MB
  Note:  These values currently only include a subset of arrays which are explicitly tracked.
  The "true" memory usage will be greater.
------------------------------------------------------------

  Energy and forces in a compact form:
  | Total energy uncorrected      :         -0.208100080920687E+04 eV
  | Total energy corrected        :         -0.208100080920687E+04 eV  <-- do not rely on this value for anything but (periodic) metals
  | Electronic free energy        :         -0.208100080920687E+04 eV

  ------------------------------------ 
  Start decomposition of the XC Energy 
  ------------------------------------ 
  X and C from original XC functional choice 
  Hartree-Fock Energy :         -2.075878027 Ha            -56.487515166 eV
  X Energy            :         -8.927890460 Ha           -242.940260072 eV
  C Energy            :         -0.325366570 Ha             -8.853674832 eV
  XC Energy w/o HF    :         -7.177379002 Ha           -195.306419738 eV
  Total XC Energy     :         -9.253257029 Ha           -251.793934904 eV
  ------------------------------------ 
  LDA X and C from self-consistent density 
  X Energy LDA        :         -8.105144473 Ha           -220.552202679 eV
  C Energy LDA        :         -0.659701488 Ha            -17.951390844 eV
  ------------------------------------ 
  End decomposition of the XC Energy 
  ------------------------------------ 

------------------------------------------------------------

------------------------------------------------------------------------------
  Final output of selected total energy values:

  The following output summarizes some interesting total energy values
  at the end of a run (AFTER all relaxation, molecular dynamics, etc.).

  | Total energy of the DFT / Hartree-Fock s.c.f. calculation      :          -2081.000809207 eV
  | Final zero-broadening corrected energy (caution - metals only) :          -2081.000809207 eV
  | For reference only, the value of 1 Hartree used in FHI-aims is :             27.211384500 eV

  Before relying on these values, please be sure to understand exactly which
  total energy value is referred to by a given number. Different objects may
  all carry the same name 'total energy'. Definitions:

  Total energy of the DFT / Hartree-Fock s.c.f. calculation:
  | Note that this energy does not include ANY quantities calculated after the
  | s.c.f. cycle, in particular not ANY RPA, MP2, etc. many-body perturbation terms.

  Final zero-broadening corrected energy:
  | For metallic systems only, a broadening of the occupation numbers at the Fermi
  | level can be extrapolated back to zero broadening by an electron-gas inspired
  | formula. For all systems that are not real metals, this value can be
  | meaningless and should be avoided.

------------------------------------------------------------------------------
  Methods described in the following list of references were used in this FHI-aims run.
  If you publish the results, please make sure to cite these reference if they apply.
  FHI-aims is an academic code, and for our developers (often, Ph.D. students
  and postdocs), scientific credit in the community is essential.
  Thank you for helping us!

  For any use of FHI-aims, please cite:

    Volker Blum, Ralf Gehrke, Felix Hanke, Paula Havu, Ville Havu,
    Xinguo Ren, Karsten Reuter, and Matthias Scheffler
    'Ab initio molecular simulations with numeric atom-centered orbitals'
    Computer Physics Communications 180, 2175-2196 (2009)
    http://doi.org/10.1016/j.cpc.2009.06.022


  For Hartree-Fock, hybrid functionals, or many-body perturbation theory used in your run, please cite:

    Xinguo Ren, Patrick Rinke, Volker Blum, Juergen Wieferink, Alex Tkatchenko,
    Andrea Sanfilippo, Karsten Reuter, and Matthias Scheffler,
    'Resolution-of-identity approach to Hartree-Fock, hybrid density functionals,
    RPA, MP2, and GW with numeric atom-centered orbital basis functions'
    New Journal of Physics 14, 053020 (2012).
    http://doi.org/10.1088/1367-2630/14/5/053020


  The ELSI infrastructure was used in your run to solve the Kohn-Sham electronic structure.
  Please check out http://elsi-interchange.org to learn more.
  If scalability is important for your project, please acknowledge ELSI by citing:

    V. W-z. Yu, F. Corsetti, A. Garcia, W. P. Huhn, M. Jacquelin, W. Jia,
    B. Lange, L. Lin, J. Lu, W. Mi, A. Seifitokaldani, A. Vazquez-Mayagoitia,
    C. Yang, H. Yang, and V. Blum
    'ELSI: A unified software interface for Kohn-Sham electronic structure solvers'
    Computer Physics Communications 222, 267-285 (2018).
    http://doi.org/10.1016/j.cpc.2017.09.007


  For the real-space grid partitioning and parallelization used in this calculation, please cite:

    Ville Havu, Volker Blum, Paula Havu, and Matthias Scheffler,
    'Efficient O(N) integration for all-electron electronic structure calculation'
    'using numerically tabulated basis functions'
    Journal of Computational Physics 228, 8367-8379 (2009).
    http://doi.org/10.1016/j.jcp.2009.08.008


  The high-level electronic structure method used in your calculation
  employed our efficient localized resolution of identity for the Coulomb operator.
  Some calculations, especially large-scale hybrid density functional theory,
  are only possible thanks to this development. For this feature, please cite:

    Arvid Ihrig, Juergen Wieferink, Igor Ying Zhang, Matti Ropo, Xinguo Ren,
    Patrick Rinke, Matthias Scheffler, and Volker Blum,
    'Accurate localized resolution of identity approach for linear-scaling
    hybrid density functionals and for many-body perturbation theory'
    New Journal of Physics 117, 093020 (2015).
    http://doi.org/10.1088/1367-2630/17/9/093020

  Of course, there are many other important community references, e.g., those cited in the
  above references. Our list is limited to references that describe implementations in the
  FHI-aims code. The reason is purely practical (length of this list) - please credit others as well.

------------------------------------------------------------
          Leaving FHI-aims.
          Date     :  20240501, Time     :  140604.544

          Computational steps:
          | Number of self-consistency cycles          :           14
          | Number of SCF (re)initializations          :            1

          Detailed time accounting                     :  max(cpu_time)    wall_clock(cpu1)
          | Total time                                  :        1.482 s           1.489 s
          | Preparation time                            :        0.086 s           0.086 s
          | Boundary condition initalization            :        0.008 s           0.007 s
          | Grid partitioning                           :        0.006 s           0.006 s
          | Preloading free-atom quantities on grid     :        0.010 s           0.011 s
          | Free-atom superposition energy              :        0.004 s           0.003 s
          | Total time for integrations                 :        0.214 s           0.214 s
          | Product basis setup: Total time             :        0.673 s           0.675 s
          | Total time evaluating exchange matrix       :        0.208 s           0.213 s
          | Total time for solution of K.-S. equations  :        0.006 s           0.005 s
          | Total time for density update               :        0.120 s           0.123 s
          | Total time for mixing                       :        0.024 s           0.024 s
          | Total time for Hartree multipole update     :        0.015 s           0.014 s
          | Total time for Hartree multipole sum        :        0.083 s           0.084 s
          | Total time for total energy evaluation      :        0.001 s           0.001 s
          | Total time for scaled ZORA corrections      :        0.000 s           0.000 s

          Partial memory accounting:
          | Residual value for overall tracked memory usage across tasks:     0.000000 MB (should be 0.000000 MB)
          | Peak values for overall tracked memory usage:
          |   Minimum:        2.352 MB (on task 3 after allocating gradient_basis_wave)
          |   Maximum:        2.432 MB (on task 0 after allocating gradient_basis_wave)
          |   Average:        2.377 MB
          | Largest tracked array allocation:
          |   Minimum:        0.723 MB (previous_rho_gradient_diff on task 0)
          |   Maximum:        0.734 MB (previous_rho_gradient_diff on task 3)
          |   Average:        0.729 MB
          Note:  These values currently only include a subset of arrays which are explicitly tracked.
          The "true" memory usage will be greater.

          Have a nice day.
------------------------------------------------------------
