------------------------------------------------------------
          Invoking FHI-aims ...

          When using FHI-aims, please cite the following reference:

            Volker Blum, Ralf Gehrke, Felix Hanke, Paula Havu,
            Ville Havu, Xinguo Ren, Karsten Reuter, and Matthias Scheffler,
            'Ab Initio Molecular Simulations with Numeric Atom-Centered Orbitals',
            Computer Physics Communications 180, 2175-2196 (2009)

          In addition, many other developments in FHI-aims are likely important for
          your particular application. If so, please cite them. A partial list of references
          is written at the end of this file. Thank you for giving credit to the authors
          of these developments.

          For general information about FHI-aims please find us at

            https://fhi-aims.org

          Online tutorials can be found at

            https://fhi-aims-club.gitlab.io/tutorials/tutorials-overview/

          For any questions about FHI-aims, please visit our slack channel at

            https://fhi-aims.slack.com

          and our main development and support site at

            https://aims-git.rz-berlin.mpg.de .

          The latter site, in particular, has a wiki to collect information, as well
          as an issue tracker to log discussions, suggest improvements, and report issues
          or bugs. https://aims-git.rz-berlin.mpg.de is also the main development site
          of the project and all new and updated code versions can be obtained there.
          Please send an email to aims-coordinators@fhi-berlin.mpg.de and we will add
          you to these sites. They are for you and everyone is welcome there.

------------------------------------------------------------



  Date     :  20241030, Time     :  192638.561
  Time zero on CPU 1             :   0.148886000000000E+00  s.
  Internal wall clock time zero  :           499548398.561  s.

  FHI-aims created a unique identifier for this run for later identification
  aims_uuid : 5DC084F5-29B6-42D0-A382-B49CF604ACB8

  Build configuration of the current instance of FHI-aims
  -------------------------------------------------------
  FHI-aims version      : 240507
  Commit number         : f9a188a83
  CMake host system     : Linux-6.9.1-zen1-1-zen
  CMake version         : 3.29.3
  Fortran compiler      : /usr/bin/mpifort (GNU) version 14.1.1
  Fortran compiler flags: -fallow-argument-mismatch -march=native -ffree-line-length-none -fallow-argument-mismatch -march=native -ffree-line-length-none
  C compiler            : /usr/bin/gcc (GNU) version 14.1.1
  C compiler flags      :  -march=native
  C++ compiler          : /usr/bin/g++ (GNU) version 14.1.1
  C++ compiler flags    :  -march=native
  HIP compiler          :
  HIP compiler flags    :
  HIP GPU arch          :
  Using MPI
  Using ScaLAPACK
  Using LibXC
  Using i-PI
  Using RLSY
  Linking against: /usr/lib/libscalapack.so
                   /usr/lib/libopenblas.so

  Using        4 parallel tasks.
  Task        0 on host arch reporting.
  Task        1 on host arch reporting.
  Task        2 on host arch reporting.
  Task        3 on host arch reporting.

  Memory overcommitment is allowed on your operating system.

  Obtaining array dimensions for all initial allocations:
  
  -----------------------------------------------------------------------
  Parsing control.in (first pass over file, find array dimensions only).
  The contents of control.in will be repeated verbatim below
  unless switched off by setting 'verbatim_writeout .false.' .
  in the first line of control.in .
  -----------------------------------------------------------------------
  
  xc                           pbe
  output_level                 full
  ################################################################################
  #
  #  FHI-aims code project
  #  VB, Fritz-Haber Institut, 2009
  #
  #  Suggested "light" defaults for O atom (to be pasted into control.in file)
  #  Be sure to double-check any results obtained with these settings for post-processing,
  #  e.g., with the "tight" defaults and larger basis sets.
  #
  ################################################################################
    species        O
  #     global species definitions
      nucleus             8
      mass                15.9994
  #
      l_hartree           4
  #
      cut_pot             3.5  1.5  1.0
      basis_dep_cutoff    1e-4
  #
      radial_base         36 5.0
      radial_multiplier   1
       angular_grids specified
        division   0.2659   50
        division   0.4451  110
        division   0.6052  194
        division   0.7543  302
  #      division   0.8014  434
  #      division   0.8507  590
  #      division   0.8762  770
  #      division   0.9023  974
  #      division   1.2339 1202
  #      outer_grid 974
        outer_grid 302
  ################################################################################
  #
  #  Definition of "minimal" basis
  #
  ################################################################################
  #     valence basis states
      valence      2  s   2.
      valence      2  p   4.
  #     ion occupancy
      ion_occ      2  s   1.
      ion_occ      2  p   3.
  ################################################################################
  #
  #  Suggested additional basis functions. For production calculations,
  #  uncomment them one after another (the most important basis functions are
  #  listed first).
  #
  #  Constructed for dimers: 1.0 A, 1.208 A, 1.5 A, 2.0 A, 3.0 A
  #
  ################################################################################
  #  "First tier" - improvements: -699.05 meV to -159.38 meV
       hydro 2 p 1.8
       hydro 3 d 7.6
       hydro 3 s 6.4
  #  "Second tier" - improvements: -49.91 meV to -5.39 meV
  #     hydro 4 f 11.6
  #     hydro 3 p 6.2
  #     hydro 3 d 5.6
  #     hydro 5 g 17.6
  #     hydro 1 s 0.75
  #  "Third tier" - improvements: -2.83 meV to -0.50 meV
  #     ionic 2 p auto
  #     hydro 4 f 10.8
  #     hydro 4 d 4.7
  #     hydro 2 s 6.8
  #  "Fourth tier" - improvements: -0.40 meV to -0.12 meV
  #     hydro 3 p 5
  #     hydro 3 s 3.3
  #     hydro 5 g 15.6
  #     hydro 4 f 17.6
  #     hydro 4 d 14
  # Further basis functions - -0.08 meV and below
  #     hydro 3 s 2.1
  #     hydro 4 d 11.6
  #     hydro 3 p 16
  #     hydro 2 s 17.2
  ################################################################################
  #
  #  FHI-aims code project
  #  VB, Fritz-Haber Institut, 2009
  #
  #  Suggested "light" defaults for H atom (to be pasted into control.in file)
  #  Be sure to double-check any results obtained with these settings for post-processing,
  #  e.g., with the "tight" defaults and larger basis sets.
  #
  ################################################################################
    species        H
  #     global species definitions
      nucleus             1
      mass                1.00794
  #
      l_hartree           4
  #
      cut_pot             3.5  1.5  1.0
      basis_dep_cutoff    1e-4
  #
      radial_base         24 5.0
      radial_multiplier   1
      angular_grids       specified
        division   0.2421   50
        division   0.3822  110
        division   0.4799  194
        division   0.5341  302
  #      division   0.5626  434
  #      division   0.5922  590
  #      division   0.6542  770
  #      division   0.6868 1202
  #      outer_grid  770
        outer_grid  302
  ################################################################################
  #
  #  Definition of "minimal" basis
  #
  ################################################################################
  #     valence basis states
      valence      1  s   1.
  #     ion occupancy
      ion_occ      1  s   0.5
  ################################################################################
  #
  #  Suggested additional basis functions. For production calculations,
  #  uncomment them one after another (the most important basis functions are
  #  listed first).
  #
  #  Basis constructed for dimers: 0.5 A, 0.7 A, 1.0 A, 1.5 A, 2.5 A
  #
  ################################################################################
  #  "First tier" - improvements: -1014.90 meV to -62.69 meV
       hydro 2 s 2.1
       hydro 2 p 3.5
  #  "Second tier" - improvements: -12.89 meV to -1.83 meV
  #     hydro 1 s 0.85
  #     hydro 2 p 3.7
  #     hydro 2 s 1.2
  #     hydro 3 d 7
  #  "Third tier" - improvements: -0.25 meV to -0.12 meV
  #     hydro 4 f 11.2
  #     hydro 3 p 4.8
  #     hydro 4 d 9
  #     hydro 3 s 3.2
  
  -----------------------------------------------------------------------
  Completed first pass over input file control.in .
  -----------------------------------------------------------------------
  
  
  -----------------------------------------------------------------------
  Parsing geometry.in (first pass over file, find array dimensions only).
  The contents of geometry.in will be repeated verbatim below
  unless switched off by setting 'verbatim_writeout .false.' .
  in the first line of geometry.in .
  -----------------------------------------------------------------------
  
  atom       0.00000000     -0.07320103     -0.00000000 O
  atom       0.76731112     -0.67039949     -0.00000000 H
  atom      -0.76731112     -0.67039949     -0.00000000 H
  
  -----------------------------------------------------------------------
  Completed first pass over input file geometry.in .
  -----------------------------------------------------------------------
  

  Basic array size parameters:
  | Number of species                 :        2
  | Number of atoms                   :        3
  | Max. basis fn. angular momentum   :        2
  | Max. atomic/ionic basis occupied n:        2
  | Max. number of basis fn. types    :        2
  | Max. radial fns per species/type  :        3
  | Max. logarithmic grid size        :     1301
  | Max. radial integration grid size :       36
  | Max. angular integration grid size:      302
  | Max. angular grid division number :        8
  | Radial grid for Hartree potential :     1301
  | Number of spin channels           :        1

------------------------------------------------------------
          Reading file control.in.
------------------------------------------------------------
  XC: Using PBE gradient-corrected functionals.
  Requested output level: full

  Reading configuration options for species O                   .
  | Found nuclear charge :   8.0000
  | Found atomic mass :    15.999400000000000      amu
  | Found l_max for Hartree potential  :   4
  | Found cutoff potl. onset [A], width [A], scale factor :    3.50000    1.50000    1.00000
  | Threshold for basis-dependent cutoff potential is   0.100000E-03
  | Found data for basic radial integration grid :    36 points, outermost radius =    5.000 A
  | Found multiplier for basic radial grid :   1
  | Found angular grid specification: user-specified.
  | Specified grid contains     5 separate shells.
  | Check grid settings after all constraints further below.
  | Found free-atom valence shell :  2 s   2.000
  | Found free-atom valence shell :  2 p   4.000
  | No ionic wave fns used. Skipping ion_occ.
  | No ionic wave fns used. Skipping ion_occ.
  | Found hydrogenic basis function :  2 p   1.800
  | Found hydrogenic basis function :  3 d   7.600
  | Found hydrogenic basis function :  3 s   6.400
 | Encountered keyword species, ending the description of species O                   .
  Species O                   : Missing cutoff potential type.
  Defaulting to exp(1/x)/(1-x)^2 type cutoff potential.
  Species O : No 'logarithmic' tag. Using default grid for free atom:
  | Default logarithmic grid data [bohr] : 0.1000E-03 0.1000E+03 0.1012E+01
  Species O : On-site basis accuracy parameter (for Gram-Schmidt orthonormalisation) not specified.
  Using default value basis_acc =  0.1000000E-03.
  Species O                   : Using default innermost maximum threshold i_radial=  2 for radial functions.
  Species O                   : Default cutoff onset for free atom density etc. : 0.35000000E+01 AA.
  Species O                   : Basic radial grid will be enhanced according to radial_multiplier =   1, to contain    36 grid points.

  Reading configuration options for species H                   .
  | Found nuclear charge :   1.0000
  | Found atomic mass :    1.0079400000000001      amu
  | Found l_max for Hartree potential  :   4
  | Found cutoff potl. onset [A], width [A], scale factor :    3.50000    1.50000    1.00000
  | Threshold for basis-dependent cutoff potential is   0.100000E-03
  | Found data for basic radial integration grid :    24 points, outermost radius =    5.000 A
  | Found multiplier for basic radial grid :   1
  | Found angular grid specification: user-specified.
  | Specified grid contains     5 separate shells.
  | Check grid settings after all constraints further below.
  | Found free-atom valence shell :  1 s   1.000
  | No ionic wave fns used. Skipping ion_occ.
  | Found hydrogenic basis function :  2 s   2.100
  | Found hydrogenic basis function :  2 p   3.500
  Species H                   : Missing cutoff potential type.
  Defaulting to exp(1/x)/(1-x)^2 type cutoff potential.
  Species H : No 'logarithmic' tag. Using default grid for free atom:
  | Default logarithmic grid data [bohr] : 0.1000E-03 0.1000E+03 0.1012E+01
  Species H : On-site basis accuracy parameter (for Gram-Schmidt orthonormalisation) not specified.
  Using default value basis_acc =  0.1000000E-03.
  Species H                   : Using default innermost maximum threshold i_radial=  2 for radial functions.
  Species H                   : Default cutoff onset for free atom density etc. : 0.35000000E+01 AA.
  Species H                   : Basic radial grid will be enhanced according to radial_multiplier =   1, to contain    24 grid points.

  Finished reading input file 'control.in'.

------------------------------------------------------------


------------------------------------------------------------
          Reading geometry description geometry.in.
------------------------------------------------------------
  | The smallest distance between any two atoms is         0.97232317 AA.
  | The first atom of this pair is atom number                      1 .
  | The second atom of this pair is atom number                     2 .
  Input structure read successfully.
  The structure contains        3 atoms,  and a total of         10.000 electrons.

  Input geometry:
  | No unit cell requested.
  | Atomic structure:
  |       Atom                x [A]            y [A]            z [A]
  |    1: Species O             0.00000000       -0.07320103       -0.00000000
  |    2: Species H             0.76731112       -0.67039949       -0.00000000
  |    3: Species H            -0.76731112       -0.67039949       -0.00000000

  Slab Identifier: This is not a periodic structure.

  Finished reading input file 'geometry.in'.



  Consistency checks for stacksize environment parameter are next.

  | Maximum stacksize for task 0: unlimited
  | Maximum stacksize for task 1: unlimited
  | Maximum stacksize for task 2: unlimited
  | Maximum stacksize for task 3: unlimited
  | Current stacksize for task 0: unlimited
  | Current stacksize for task 1: unlimited
  | Current stacksize for task 2: unlimited
  | Current stacksize for task 3: unlimited

  Consistency checks for the contents of control.in are next.

  MPI_IN_PLACE appears to work with this MPI implementation.
  | Keeping use_mpi_in_place .true. (see manual).
  Target number of points in a grid batch is not set. Defaulting to  100
  Method for grid partitioning is not set. Defaulting to parallel hash+maxmin partitioning.
  Batch size limit is not set. Defaulting to    200
  By default, will store active basis functions for each batch.
  If in need of memory, prune_basis_once .false. can be used to disable this option.
  communication_type for Hartree potential was not specified.
  Defaulting to calc_hartree .
  Defaulting to Pulay charge density mixer.
  Pulay mixer: Number of relevant iterations not set.
  Defaulting to    8 iterations.
  Pulay mixer: Number of initial linear mixing iterations not set.
  Defaulting to    0 iterations.
  Work space size for distributed Hartree potential not set.
  Defaulting to   0.200000E+03 MB.
  Mixing parameter for charge density mixing has not been set.
  Using default: charge_mix_param =     0.0500.
  The mixing parameter will be adjusted in iteration number     2 of the first full s.c.f. cycle only.
  Algorithm-dependent basis array size parameters:
  | n_max_pulay                         :        8
  Maximum number of self-consistency iterations not provided.
  Presetting  1000 iterations.
  Presetting      1001 iterations before the initial mixing cycle
  is restarted anyway using the sc_init_iter criterion / keyword.
  Presetting a factor      1.000 between actual scf density residual
  and density convergence criterion sc_accuracy_rho below which sc_init_iter
  takes no effect.
 * No s.c.f. convergence criteria (sc_accuracy_*) were provided in control.in.
 * The run will proceed with a reasonable default guess, but please check whether.
 * the s.c.f. cycles seem to take too much or too little time.
  Calculation of forces was not defined in control.in. No forces will be calculated.
  Geometry relaxation not requested: no relaxation will be performed.
 * Notice: The s.c.f. convergence criterion sc_accuracy_rho was not provided.
 * We used to stop in this case, and ask the user to provide reasonable
 * scf convergence criteria. However, this led some users to employ criteria
 * that led to extremely long run times, e.g., for simple relaxation.
 * We now preset a default value for sc_accuracy_rho if it is not set.
 * You may still wish to check if this setting is too tight or too loose for your needs.
 * Based on n_atoms and forces and force-correction status, FHI-aims chose sc_accuracy_rho =  0.800000E-05 .
  No accuracy limit for integral partition fn. given. Defaulting to  0.1000E-14.
  No threshold value for u(r) in integrations given. Defaulting to  0.1000E-05.
  No occupation type (smearing scheme) given. Defaulting to Gaussian broadening, width =  0.1000E-01 eV.
  The width will be adjusted in iteration number     2 of the first full s.c.f. cycle only.
  S.C.F. convergence parameters will be adjusted in iteration number     2 of the first full s.c.f. cycle only.
  No accuracy for occupation numbers given. Defaulting to  0.1000E-12.
  No threshold value for occupation numbers given. Defaulting to  0.0000E+00.
  No accuracy for fermi level given. Defaulting to  0.1000E-19.
  Maximum # of iterations to find E_F not set. Defaulting to  200.
  Preferred method for the eigenvalue solver ('KS_method') not specified in 'control.in'.
  Calling BLACS routine to test compilation state
  Since ScaLAPACK support is enabled, defaulting to ELPA (via ELSI).
  Will not use alltoall communication since running on < 1024 CPUs.
  Threshold for basis singularities not set.
  Default threshold for basis singularities:  0.1000E-04
  partition_type (choice of integration weights) for integrals was not specified.
  | Using a version of the partition function of Stratmann and coworkers ('stratmann_sparse').
  | At each grid point, the set of atoms used to build the partition table is smoothly restricted to
  | only those atoms whose free-atom density would be non-zero at that grid point.
  Partitioning for Hartree potential was not defined. Using partition_type for integrals.
  | Adjusted default value of keyword multip_moments_threshold to:       0.10000000E-11
  | This value may affect high angular momentum components of the Hartree potential in periodic systems.
  Spin handling was not defined in control.in. Defaulting to unpolarized case.
  No q(lm)/r^(l+1) cutoff set for long-range Hartree potential.
  | Using default value of  0.100000E-09 .
  | Verify using the multipole_threshold keyword.
  Defaulting to new monopole extrapolation.
  Density update method: automatic selection selected.
  Charge integration errors on the 3D integration grid will be compensated
  by explicit normalization and distribution of residual charges.
  Use the "compensate_multipole_errors" flag to change this behaviour.
  Set 'collect_eigenvectors' to be '.true.' for use_density_matrix .false.
  Found no potential conflicts with setting 'use_local_index' for this calculation.
  Flag 'use_local_index' has not been set.
  Testing whether we classify this calculation as large-scale ...
  The calculation contains less than 100 atoms. This is most likely not a large-scale calculation.
  Not setting 'use_local_index'.

  Consistency checks for the contents of geometry.in are next.

 * Warning! You did not set the 'relativistic' flag in input file 'control.in'.
 * FHI-aims will default to 'relativistic atomic_zora scalar'.
 * You must ensure that this is really what you want!!
 * For example, DO NOT compute total-energy differences between results from
 * different settings of the 'relativistic' flag.
  Number of empty states per atom not set in control.in - providing a guess from actual geometry.
  | Total number of empty states used during s.c.f. cycle:        6
  If you use a very high smearing, use empty_states (per atom!) in control.in to increase this value.

  Structure-dependent array size parameters: 
  | Maximum number of distinct radial functions  :        9
  | Maximum number of basis functions            :       24
  | Number of Kohn-Sham states (occupied + empty):       11
------------------------------------------------------------
  After read_input_data [GB]:     51.23

  Performing system and environment tests:
  *** Environment variable OMP_NUM_THREADS is not set
  *** For performance reasons you might want to set it to 1
  | Checking for ScaLAPACK...
  | Testing pdtran()...
  | All pdtran() tests passed.
  After prepare_system [GB]:     51.22

------------------------------------------------------------
          Preparing all fixed parts of the calculation.
------------------------------------------------------------
  Determining machine precision:
     2.2250738585072014E-308
  Setting up grids for atomic and cluster calculations.

  Creating wave function, potential, and density for free atoms.
  Runtime choices for atomic solver:
  | atomic solver xc        : PBE
  | compute density gradient: 1
  | compute kinetic density : F

  Species: O

  List of occupied orbitals and eigenvalues:
    n    l              occ      energy [Ha]    energy [eV]
    1    0           2.0000       -18.926989      -515.0296
    2    0           2.0000        -0.880247       -23.9527
    2    1           4.0000        -0.331514        -9.0210


  Species: H

  List of occupied orbitals and eigenvalues:
    n    l              occ      energy [Ha]    energy [eV]
    1    0           1.0000        -0.237593        -6.4652


  Adding cutoff potential to free-atom effective potential.
  Creating fixed part of basis set: Ionic, confined, hydrogenic.

  O                    hydrogenic:

  List of hydrogenic basis orbitals: 
    n    l      effective z      eigenvalue [eV]  inner max. [A]     outer max. [A]     outer radius [A]   
    2    1         1.800000       -10.9749           1.164242           1.164242           4.578029
    3    2         7.600000       -87.3180           0.624125           0.624125           3.251020
    3    0         6.400000       -61.9207           0.061167           1.081902           4.001998


  H                    hydrogenic:

  List of hydrogenic basis orbitals: 
    n    l      effective z      eigenvalue [eV]  inner max. [A]     outer max. [A]     outer radius [A]   
    2    0         2.100000       -14.9728           0.193243           1.317208           4.583499
    2    1         3.500000       -41.6669           0.602369           0.602369           3.723403

  Creating atomic-like basis functions for current effective potential.

  Species O                   :

  List of atomic basis orbitals and eigenvalues:
    n    l      energy [Ha]    energy [eV]    outer radius [A]
    1    0       -18.926989      -515.0296       1.415765
    2    0        -0.880247       -23.9527       4.413171
    2    1        -0.331514        -9.0210       4.522403


  Species H                   :

  List of atomic basis orbitals and eigenvalues:
    n    l      energy [Ha]    energy [eV]    outer radius [A]
    1    0        -0.237593        -6.4652       4.527807

  Assembling full basis from fixed parts.
  | Species O :   atomic orbital   1 s accepted.
  | Species O :    hydro orbital   3 s accepted.
  | Species O :   atomic orbital   2 s accepted.
  | Species O :   atomic orbital   2 p accepted.
  | Species O :    hydro orbital   2 p accepted.
  | Species O :    hydro orbital   3 d accepted.
  | Species H :   atomic orbital   1 s accepted.
  | Species H :    hydro orbital   2 s accepted.
  | Species H :    hydro orbital   2 p accepted.

  Basis size parameters after reduction:
  | Total number of radial functions:        9
  | Total number of basis functions :       24

  Per-task memory consumption for arrays in subroutine allocate_ext:
  |           2.998708MB.
  Testing on-site integration grid accuracy.
  |  Species  Function  <phi|h_atom|phi> (log., in eV)  <phi|h_atom|phi> (rad., in eV)
           1        1               -515.0295626295               -515.0294562738
           1        2                 15.1698434419                 15.1699322204
           1        3                -21.6038822678                -21.6039118105
           1        4                 -9.0211123393                 -9.0212703513
           1        5                  8.3047696391                  8.2854840999
           1        6                 45.8428042125                 45.8427461222
           2        7                 -6.4664147733                 -6.4652229287
           2        8                 13.7099062243                 13.7158503352
           2        9                 25.2661739479                 25.2663166526

  Preparing densities etc. for the partition functions (integrals / Hartree potential).

  Preparations completed.
  max(cpu_time)          :      0.086 s.
  Wall clock time (cpu1) :      0.096 s.
------------------------------------------------------------
  After prepare_scf [GB]:     51.17

  Initializing index lists of integration centers etc. from given atomic structure:
  | Number of centers in hartree potential         :         3
  | Number of centers in hartree multipole         :         3
  | Number of centers in electron density summation:         3
  | Number of centers in basis integrals           :         3
  | Number of centers in integrals                 :         3
  | Number of centers in hamiltonian               :         3
  After initialize_bc_dependent_lists [GB]:     51.17

------------------------------------------------------------
          Begin self-consistency loop: Initialization.

          Date     :  20241030, Time     :  192638.691
------------------------------------------------------------
  Available memory per node after initialize_hartree_non_periodic_ewald [GB]:     51.17
  Available memory per node after initialize_recip_hartree_potential [GB]:     51.17
  * Using 4 tasks for Scalapack Eigenvalue solver.
  Detailed listing of tasks and assigned k-points:
  (for non-periodic systems, the "k-point" denotes an internal label only)
   Task     0 k-point     1 on arch
   Task     1 k-point     1 on arch
   Task     2 k-point     1 on arch
   Task     3 k-point     1 on arch
  Tasks:     4 split into      2 X      2 BLACS grid
  Calculating block size based on n_basis =           24  max_nprow =            2  max_npcol =            2
  ScaLAPACK block size set to:            8
  Allocating        0.002 MB for ovlp
  Allocating        0.002 MB for ham
  Allocating        0.002 MB for eigenvec
  Required Scalapack workspace - INTEGER:            1  REAL:             1
  Available memory per node after initialize_scalapack [GB]:     51.17
  Available memory per node after aims_elsi_init_scf [GB]:     51.17
  Available memory per node after initialize_fixed_grids [GB]:     51.17
  Partitioning the integration grid into batches with parallel hashing+maxmin method.
  | Number of batches:      249
  | Maximal batch size:     102
  | Minimal batch size:      49
  | Average batch size:      63.952
  | Standard deviation of batch sizes:       9.005

  Integration load balanced across     4 MPI tasks.
  Work distribution over tasks is as follows:
  Task     0 has       3948 integration points.
  Task     1 has       3984 integration points.
  Task     2 has       3983 integration points.
  Task     3 has       4009 integration points.
  Available memory per node after partition_grid [GB]:     51.17
  Initializing partition tables, free-atom densities, potentials, etc. across the integration grid (initialize_grid_storage).
  | initialize_grid_storage: Actual outermost partition radius vs. multipole_radius_free
  | (-- VB: in principle, multipole_radius_free should be larger, hence this output)
  | Species        1: Confinement radius =              4.999999999999999 AA, multipole_radius_free =              5.048384829883283 AA.
  | Species        1: outer_partition_radius set to              5.048384829883283 AA .
  | Species        2: Confinement radius =              4.999999999999999 AA, multipole_radius_free =              5.054417573612229 AA.
  | Species        2: outer_partition_radius set to              5.054417573612229 AA .
  | The sparse table of interatomic distances needs          0.09 kbyte instead of         0.07 kbyte of memory.
  | Using the partition_type stratmann_smoother will reduce your memory usage.
  | Net number of integration points:    15924
  | of which are non-zero points    :    14544
  Available memory per node after initialize_grid_storage_p1 [GB]:     51.17
  Renormalizing the initial density to the exact electron count on the 3D integration grid.
  | Initial density: Formal number of electrons (from input files) :      10.0000000000
  | Integrated number of electrons on 3D grid     :       9.9999460531
  | Charge integration error                      :      -0.0000539469
  | Normalization factor for density and gradient :       1.0000053947
  Renormalizing the free-atom superposition density to the exact electron count on the 3D integration grid.
  | Formal number of electrons (from input files) :      10.0000000000
  | Integrated number of electrons on 3D grid     :       9.9999460531
  | Charge integration error                      :      -0.0000539469
  | Normalization factor for density and gradient :       1.0000053947
  Obtaining max. number of non-zero basis functions in each batch (get_n_compute_maxes).
  | Maximal number of non-zero basis functions:       24 in task     0
  | Maximal number of non-zero basis functions:       24 in task     1
  | Maximal number of non-zero basis functions:       24 in task     2
  | Maximal number of non-zero basis functions:       24 in task     3
  Selecting the method for density update.
  Loop over occupied states selected for charge density update.
  Available memory per node after get_n_compute_maxes_p1 [GB]:     51.17
  Allocating        0.002 MB for KS_eigenvector
  Available memory per node after allocate_matrices [GB]:     51.17
  Available memory per node after init_comm_sparse_local_matrix_scalapack [GB]:     51.17
  Integrating Hamiltonian matrix: batch-based integration.
  Time summed over all CPUs for integration: real work        0.045 s, elapsed        0.046 s
          Integrate hamiltonian matrix                 :  max(cpu_time)    wall_clock(cpu1)
          | Total time                                  :        0.012 s           0.011 s
  Available memory per node after integrate hamiltonian matrix [GB]:     51.17
  Integrating overlap matrix.
  Time summed over all CPUs for integration: real work        0.018 s, elapsed        0.018 s
  Available memory per node after integrate ovlp matrix [GB]:     51.17
  Available memory per node after ASI_callbacks invoke [GB]:     51.17
  Deallocating overlap matrix.
  Available memory per node after save_overlap_scalapack [GB]:     51.17

  Updating Kohn-Sham eigenvalues and eigenvectors using ELSI and the ELPA eigensolver.
      Allocating      0.002 MB for copy
      Deallocating copy
  Overlap matrix is not singular
  | Lowest and highest eigenvalues :  0.1659E-01,  0.2705E+01
  Finished singularity check of overlap matrix
  | Time :     0.000 s
  Starting ELPA eigensolver
  Finished Cholesky decomposition
  | Time :     0.000 s
      Allocating      0.004 MB for tmp
      Deallocating tmp
  Finished transformation to standard eigenproblem
  | Time :     0.000 s
  Finished solving standard eigenproblem
  | Time :     0.001 s
      Allocating      0.002 MB for tmp
      Deallocating tmp
  Finished back-transformation of eigenvectors
  | Time :     0.000 s

  Obtaining occupation numbers and electronic chemical potential using ELSI.
  | Note that, for insulating systems, the printed 'chemical potential' value is not uniquely defined.
  | It can be anywhere in the energy gap, as long as it correctly separates occupied and unoccupied states.
  | In systems with a gap, the physically relevant chemical potential is the VBM or HOMO.

  | Chemical potential (Fermi level):    -2.85222718 eV
  Available memory per node after advance_KS_solution [GB]:     51.17
  Writing Kohn-Sham eigenvalues.

  State    Occupation    Eigenvalue [Ha]    Eigenvalue [eV]
      1       2.00000         -19.031336         -517.86899
      2       2.00000          -1.093985          -29.76884
      3       2.00000          -0.623681          -16.97123
      4       2.00000          -0.507514          -13.81016
      5       2.00000          -0.434751          -11.83018
      6       0.00000          -0.049942           -1.35898
      7       0.00000           0.031956            0.86956
      8       0.00000           0.216001            5.87767
      9       0.00000           0.249458            6.78809
     10       0.00000           0.302944            8.24353
     11       0.00000           0.505715           13.76122

  Highest occupied state (VBM) at    -11.83018427 eV
  | Occupation number:      2.00000000

  Lowest unoccupied state (CBM) at    -1.35897880 eV
  | Occupation number:      0.00000000

  Overall HOMO-LUMO gap:     10.47120547 eV.
  Calculating total energy contributions from superposition of free atom densities.

  Total energy components:
  | Sum of eigenvalues            :         -43.38253392 Ha       -1180.49881099 eV
  | XC energy correction          :          -9.02253680 Ha        -245.51571800 eV
  | XC potential correction       :          11.60068872 Ha         315.67080129 eV
  | Free-atom electrostatic energy:         -35.73813987 Ha        -972.48426533 eV
  | Hartree energy correction     :          -0.00000000 Ha          -0.00000000 eV
  | Entropy correction            :          -0.00000000 Ha          -0.00000000 eV
  | ---------------------------
  | Total energy                  :         -76.54252186 Ha       -2082.82799304 eV
  | Total energy, T -> 0          :         -76.54252186 Ha       -2082.82799304 eV  <-- do not rely on this value for anything but (periodic) metals
  | Electronic free energy        :         -76.54252186 Ha       -2082.82799304 eV

  Derived energy quantities:
  | Kinetic energy                :          75.72139594 Ha        2060.48401984 eV
  | Electrostatic energy          :        -143.24138101 Ha       -3897.79629487 eV
  | Energy correction for multipole
  | error in Hartree potential    :           0.00000000 Ha           0.00000000 eV
  | Sum of eigenvalues per atom                           :        -393.49960366 eV
  | Total energy (T->0) per atom                          :        -694.27599768 eV  <-- do not rely on this value for anything but (periodic) metals
  | Electronic free energy per atom                       :        -694.27599768 eV
  Initialize hartree_potential_storage
  Max. number of atoms included in rho_multipole:            3

  End scf initialization - timings             :  max(cpu_time)    wall_clock(cpu1)
  | Time for scf. initialization                :        0.035 s           0.037 s
  | Boundary condition initialization           :        0.002 s           0.001 s
  | Integration                                 :        0.016 s           0.016 s
  | Solution of K.-S. eqns.                     :        0.001 s           0.001 s
  | Grid partitioning                           :        0.007 s           0.009 s
  | Preloading free-atom quantities on grid     :        0.006 s           0.006 s
  | Free-atom superposition energy              :        0.004 s           0.004 s
  | Total energy evaluation                     :        0.000 s           0.000 s

  Partial memory accounting:
  | Current value for overall tracked memory usage:
  |   Minimum:        0.006 MB (on task 3)
  |   Maximum:        0.011 MB (on task 0)
  |   Average:        0.008 MB
  | Peak value for overall tracked memory usage:
  |   Minimum:        0.123 MB (on task 3 after allocating grid_partition)
  |   Maximum:        0.155 MB (on task 0 after allocating grid_partition)
  |   Average:        0.140 MB
  | Largest tracked array allocation so far:
  |   Minimum:        0.081 MB (all_coords on task 3)
  |   Maximum:        0.099 MB (all_coords on task 0)
  |   Average:        0.091 MB
  Note:  These values currently only include a subset of arrays which are explicitly tracked.
  The "true" memory usage will be greater.
------------------------------------------------------------
  Available memory after initialize_scf [GB]:     51.17
  Available memory after allocating mixing [GB]:     51.17
  Evaluating new KS density.
  Integration grid: deviation in total charge (<rho> - N_e) =  -1.776357E-15

  Time for density update prior                :  max(cpu_time)    wall_clock(cpu1)
  | self-consistency iterative process          :        0.009 s           0.009 s
  Available memory before start of SCF loop [GB]:     51.17

------------------------------------------------------------
          Begin self-consistency iteration #    1

  Date     :  20241030, Time     :  192638.738
------------------------------------------------------------
  Pulay mixing of updated and previous charge densities.
  Available memory per node after mixing [GB]:     51.17
  Renormalizing the density to the exact electron count on the 3D integration grid.
  | Formal number of electrons (from input files) :      10.0000000000
  | Integrated number of electrons on 3D grid     :      10.0000000000
  | Charge integration error                      :       0.0000000000
  | Normalization factor for density and gradient :       1.0000000000

  Evaluating partitioned Hartree potential by multipole expansion.
  | Original multipole sum: apparent total charge =   0.918111E-14
  | Sum of charges compensated after spline to logarithmic grids =   0.121968E-04
  | Analytical far-field extrapolation by fixed multipoles:
  | Hartree multipole sum: apparent total charge =   0.910116E-14
  Summing up the Hartree potential.
  Time summed over all CPUs for potential: real work        0.006 s, elapsed        0.006 s
  | RMS charge density error from multipole expansion :   0.350855E-03

  Integrating Hamiltonian matrix: batch-based integration.
  Time summed over all CPUs for integration: real work        0.045 s, elapsed        0.046 s
          Integrate hamiltonian matrix                 :  max(cpu_time)    wall_clock(cpu1)
          | Total time                                  :        0.011 s           0.011 s

  Updating Kohn-Sham eigenvalues and eigenvectors using ELSI and the ELPA eigensolver.
  Starting ELPA eigensolver
      Allocating      0.004 MB for tmp
      Deallocating tmp
  Finished transformation to standard eigenproblem
  | Time :     0.000 s
  Finished solving standard eigenproblem
  | Time :     0.000 s
      Allocating      0.002 MB for tmp
      Deallocating tmp
  Finished back-transformation of eigenvectors
  | Time :     0.000 s

  Obtaining occupation numbers and electronic chemical potential using ELSI.
  | Note that, for insulating systems, the printed 'chemical potential' value is not uniquely defined.
  | It can be anywhere in the energy gap, as long as it correctly separates occupied and unoccupied states.
  | In systems with a gap, the physically relevant chemical potential is the VBM or HOMO.

  | Chemical potential (Fermi level):    -2.67330759 eV
  Writing Kohn-Sham eigenvalues.

  State    Occupation    Eigenvalue [Ha]    Eigenvalue [eV]
      1       2.00000         -18.992413         -516.80985
      2       2.00000          -1.074960          -29.25115
      3       2.00000          -0.607312          -16.52580
      4       2.00000          -0.488051          -13.28054
      5       2.00000          -0.414461          -11.27807
      6       0.00000          -0.045348           -1.23398
      7       0.00000           0.038340            1.04330
      8       0.00000           0.224436            6.10722
      9       0.00000           0.258300            7.02870
     10       0.00000           0.308949            8.40693
     11       0.00000           0.511247           13.91174

  Highest occupied state (VBM) at    -11.27807116 eV
  | Occupation number:      2.00000000

  Lowest unoccupied state (CBM) at    -1.23398009 eV
  | Occupation number:      0.00000000

  Overall HOMO-LUMO gap:     10.04409107 eV.

  Total energy components:
  | Sum of eigenvalues            :         -43.15439447 Ha       -1174.29082074 eV
  | XC energy correction          :          -9.04805148 Ha        -246.21000777 eV
  | XC potential correction       :          11.63412385 Ha         316.58061749 eV
  | Free-atom electrostatic energy:         -35.73813987 Ha        -972.48426533 eV
  | Hartree energy correction     :          -0.21892200 Ha          -5.95717083 eV
  | Entropy correction            :          -0.00000000 Ha          -0.00000000 eV
  | ---------------------------
  | Total energy                  :         -76.52538397 Ha       -2082.36164718 eV
  | Total energy, T -> 0          :         -76.52538397 Ha       -2082.36164718 eV  <-- do not rely on this value for anything but (periodic) metals
  | Electronic free energy        :         -76.52538397 Ha       -2082.36164718 eV

  Derived energy quantities:
  | Kinetic energy                :          75.87622934 Ha        2064.69725110 eV
  | Electrostatic energy          :        -143.35356183 Ha       -3900.84889051 eV
  | Energy correction for multipole
  | error in Hartree potential    :           0.00010879 Ha           0.00296042 eV
  | Sum of eigenvalues per atom                           :        -391.43027358 eV
  | Total energy (T->0) per atom                          :        -694.12054906 eV  <-- do not rely on this value for anything but (periodic) metals
  | Electronic free energy per atom                       :        -694.12054906 eV
  Evaluating new KS density.
  Integration grid: deviation in total charge (<rho> - N_e) =   0.000000E+00

  Self-consistency convergence accuracy:
  | Change of charge density      :  0.3061E+00
  | Change of unmixed KS density  :  0.9128E+01
  | Change of sum of eigenvalues  :  0.6208E+01 eV
  | Change of total energy        :  0.4663E+00 eV


------------------------------------------------------------
  End self-consistency iteration #     1       :  max(cpu_time)    wall_clock(cpu1)
  | Time for this iteration                     :        0.029 s           0.029 s
  | Charge density update                       :        0.009 s           0.009 s
  | Density mixing                              :        0.000 s           0.000 s
  | Hartree multipole update                    :        0.001 s           0.001 s
  | Hartree multipole summation                 :        0.006 s           0.007 s
  | Integration                                 :        0.011 s           0.011 s
  | Solution of K.-S. eqns.                     :        0.000 s           0.001 s
  | Total energy evaluation                     :        0.000 s           0.000 s

  Partial memory accounting:
  | Current value for overall tracked memory usage:
  |   Minimum:        2.209 MB (on task 0)
  |   Maximum:        2.239 MB (on task 3)
  |   Average:        2.225 MB
  | Peak value for overall tracked memory usage:
  |   Minimum:        2.284 MB (on task 0 after allocating gradient_basis_wave)
  |   Maximum:        2.314 MB (on task 3 after allocating gradient_basis_wave)
  |   Average:        2.300 MB
  | Largest tracked array allocation so far:
  |   Minimum:        0.723 MB (previous_rho_gradient_diff on task 0)
  |   Maximum:        0.734 MB (previous_rho_gradient_diff on task 3)
  |   Average:        0.729 MB
  Note:  These values currently only include a subset of arrays which are explicitly tracked.
  The "true" memory usage will be greater.
------------------------------------------------------------

------------------------------------------------------------
          Begin self-consistency iteration #    2

  Date     :  20241030, Time     :  192638.767
------------------------------------------------------------
  Pulay mixing of updated and previous charge densities.
  Diagnostic output of the density mixing factors determined by the Pulay scheme:
  | Note that these factors are applied to density residuals, i.e., to density differences that are normalized to zero.
  | Iteration         Mixing factor
  | N minus   1       0.561165E+01
  Available memory per node after mixing [GB]:     51.16
  Renormalizing the density to the exact electron count on the 3D integration grid.
  | Formal number of electrons (from input files) :      10.0000000000
  | Integrated number of electrons on 3D grid     :      10.0000000000
  | Charge integration error                      :       0.0000000000
  | Normalization factor for density and gradient :       1.0000000000

  Evaluating partitioned Hartree potential by multipole expansion.
  | Original multipole sum: apparent total charge =   0.881829E-14
  | Sum of charges compensated after spline to logarithmic grids =   0.865394E-04
  | Analytical far-field extrapolation by fixed multipoles:
  | Hartree multipole sum: apparent total charge =   0.868300E-14
  Summing up the Hartree potential.
  Time summed over all CPUs for potential: real work        0.007 s, elapsed        0.008 s
  | RMS charge density error from multipole expansion :   0.246971E-02

  Integrating Hamiltonian matrix: batch-based integration.
  Time summed over all CPUs for integration: real work        0.044 s, elapsed        0.045 s
          Integrate hamiltonian matrix                 :  max(cpu_time)    wall_clock(cpu1)
          | Total time                                  :        0.011 s           0.011 s

  Updating Kohn-Sham eigenvalues and eigenvectors using ELSI and the ELPA eigensolver.
  Starting ELPA eigensolver
      Allocating      0.004 MB for tmp
      Deallocating tmp
  Finished transformation to standard eigenproblem
  | Time :     0.000 s
  Finished solving standard eigenproblem
  | Time :     0.001 s
      Allocating      0.002 MB for tmp
      Deallocating tmp
  Finished back-transformation of eigenvectors
  | Time :     0.000 s

  Obtaining occupation numbers and electronic chemical potential using ELSI.
  | Note that, for insulating systems, the printed 'chemical potential' value is not uniquely defined.
  | It can be anywhere in the energy gap, as long as it correctly separates occupied and unoccupied states.
  | In systems with a gap, the physically relevant chemical potential is the VBM or HOMO.

  | Chemical potential (Fermi level):    -1.59128939 eV
  Writing Kohn-Sham eigenvalues.

  State    Occupation    Eigenvalue [Ha]    Eigenvalue [eV]
      1       2.00000         -18.770857         -510.78100
      2       2.00000          -0.966205          -26.29177
      3       2.00000          -0.516006          -14.04123
      4       2.00000          -0.378166          -10.29043
      5       2.00000          -0.300179           -8.16828
      6       0.00000          -0.017294           -0.47060
      7       0.00000           0.077620            2.11215
      8       0.00000           0.276436            7.52221
      9       0.00000           0.313708            8.53643
     10       0.00000           0.344595            9.37690
     11       0.00000           0.545146           14.83419

  Highest occupied state (VBM) at     -8.16827914 eV
  | Occupation number:      2.00000000

  Lowest unoccupied state (CBM) at    -0.47059991 eV
  | Occupation number:      0.00000000

  Overall HOMO-LUMO gap:      7.69767923 eV.

  Checking to see if s.c.f. parameters should be adjusted.
  The system likely has a gap. Increased the default Pulay mixing parameter (charge_mix_param). Value:   0.200000 .
  Kept the default occupation width. Value:   0.010000 eV.

  Total energy components:
  | Sum of eigenvalues            :         -41.86282465 Ha       -1139.14541784 eV
  | XC energy correction          :          -9.19954038 Ha        -250.33223053 eV
  | XC potential correction       :          11.83264281 Ha         321.98259321 eV
  | Free-atom electrostatic energy:         -35.73813987 Ha        -972.48426533 eV
  | Hartree energy correction     :          -1.50579514 Ha         -40.97477047 eV
  | Entropy correction            :          -0.00000000 Ha          -0.00000000 eV
  | ---------------------------
  | Total energy                  :         -76.47365723 Ha       -2080.95409096 eV
  | Total energy, T -> 0          :         -76.47365723 Ha       -2080.95409096 eV  <-- do not rely on this value for anything but (periodic) metals
  | Electronic free energy        :         -76.47365723 Ha       -2080.95409096 eV

  Derived energy quantities:
  | Kinetic energy                :          76.67715787 Ha        2086.49162504 eV
  | Electrostatic energy          :        -143.95127471 Ha       -3917.11348547 eV
  | Energy correction for multipole
  | error in Hartree potential    :           0.00052758 Ha           0.01435626 eV
  | Sum of eigenvalues per atom                           :        -379.71513928 eV
  | Total energy (T->0) per atom                          :        -693.65136365 eV  <-- do not rely on this value for anything but (periodic) metals
  | Electronic free energy per atom                       :        -693.65136365 eV
  Evaluating new KS density.
  Integration grid: deviation in total charge (<rho> - N_e) =   7.105427E-15

  Self-consistency convergence accuracy:
  | Change of charge density      :  0.2685E+00
  | Change of unmixed KS density  :  0.2886E-01
  | Change of sum of eigenvalues  :  0.3515E+02 eV
  | Change of total energy        :  0.1408E+01 eV


------------------------------------------------------------
  End self-consistency iteration #     2       :  max(cpu_time)    wall_clock(cpu1)
  | Time for this iteration                     :        0.031 s           0.031 s
  | Charge density update                       :        0.009 s           0.009 s
  | Density mixing                              :        0.001 s           0.001 s
  | Hartree multipole update                    :        0.001 s           0.001 s
  | Hartree multipole summation                 :        0.008 s           0.008 s
  | Integration                                 :        0.011 s           0.011 s
  | Solution of K.-S. eqns.                     :        0.000 s           0.001 s
  | Total energy evaluation                     :        0.000 s           0.000 s

  Partial memory accounting:
  | Current value for overall tracked memory usage:
  |   Minimum:        2.210 MB (on task 0)
  |   Maximum:        2.240 MB (on task 3)
  |   Average:        2.226 MB
  | Peak value for overall tracked memory usage:
  |   Minimum:        2.285 MB (on task 0 after allocating gradient_basis_wave)
  |   Maximum:        2.315 MB (on task 3 after allocating gradient_basis_wave)
  |   Average:        2.301 MB
  | Largest tracked array allocation so far:
  |   Minimum:        0.723 MB (previous_rho_gradient_diff on task 0)
  |   Maximum:        0.734 MB (previous_rho_gradient_diff on task 3)
  |   Average:        0.729 MB
  Note:  These values currently only include a subset of arrays which are explicitly tracked.
  The "true" memory usage will be greater.
------------------------------------------------------------

------------------------------------------------------------
          Begin self-consistency iteration #    3

  Date     :  20241030, Time     :  192638.798
------------------------------------------------------------
  Pulay mixing of updated and previous charge densities.
  Diagnostic output of the density mixing factors determined by the Pulay scheme:
  | Note that these factors are applied to density residuals, i.e., to density differences that are normalized to zero.
  | Iteration         Mixing factor
  | N minus   1       0.108588E+02
  | N minus   2      -0.654891E+02
  Available memory per node after mixing [GB]:     51.16
  Renormalizing the density to the exact electron count on the 3D integration grid.
  | Formal number of electrons (from input files) :      10.0000000000
  | Integrated number of electrons on 3D grid     :      10.0000000000
  | Charge integration error                      :      -0.0000000000
  | Normalization factor for density and gradient :       1.0000000000

  Evaluating partitioned Hartree potential by multipole expansion.
  | Original multipole sum: apparent total charge =   0.822794E-14
  | Sum of charges compensated after spline to logarithmic grids =   0.610901E-04
  | Analytical far-field extrapolation by fixed multipoles:
  | Hartree multipole sum: apparent total charge =   0.844932E-14
  Summing up the Hartree potential.
  Time summed over all CPUs for potential: real work        0.006 s, elapsed        0.006 s
  | RMS charge density error from multipole expansion :   0.373348E-02

  Integrating Hamiltonian matrix: batch-based integration.
  Time summed over all CPUs for integration: real work        0.044 s, elapsed        0.045 s
          Integrate hamiltonian matrix                 :  max(cpu_time)    wall_clock(cpu1)
          | Total time                                  :        0.011 s           0.012 s

  Updating Kohn-Sham eigenvalues and eigenvectors using ELSI and the ELPA eigensolver.
  Starting ELPA eigensolver
      Allocating      0.004 MB for tmp
      Deallocating tmp
  Finished transformation to standard eigenproblem
  | Time :     0.000 s
  Finished solving standard eigenproblem
  | Time :     0.000 s
      Allocating      0.002 MB for tmp
      Deallocating tmp
  Finished back-transformation of eigenvectors
  | Time :     0.000 s

  Obtaining occupation numbers and electronic chemical potential using ELSI.
  | Note that, for insulating systems, the printed 'chemical potential' value is not uniquely defined.
  | It can be anywhere in the energy gap, as long as it correctly separates occupied and unoccupied states.
  | In systems with a gap, the physically relevant chemical potential is the VBM or HOMO.

  | Chemical potential (Fermi level):    -1.90559099 eV
  Writing Kohn-Sham eigenvalues.

  State    Occupation    Eigenvalue [Ha]    Eigenvalue [eV]
      1       2.00000         -18.918367         -514.79495
      2       2.00000          -1.011352          -27.52028
      3       2.00000          -0.552080          -15.02285
      4       2.00000          -0.423285          -11.51816
      5       2.00000          -0.347488           -9.45562
      6       0.00000          -0.025428           -0.69193
      7       0.00000           0.063736            1.73433
      8       0.00000           0.255218            6.94484
      9       0.00000           0.289202            7.86959
     10       0.00000           0.335807            9.13777
     11       0.00000           0.537982           14.63923

  Highest occupied state (VBM) at     -9.45562312 eV
  | Occupation number:      2.00000000

  Lowest unoccupied state (CBM) at    -0.69193047 eV
  | Occupation number:      0.00000000

  Overall HOMO-LUMO gap:      8.76369265 eV.

  Total energy components:
  | Sum of eigenvalues            :         -42.50514090 Ha       -1156.62373222 eV
  | XC energy correction          :          -9.12199649 Ha        -248.22215393 eV
  | XC potential correction       :          11.73059272 Ha         319.20566896 eV
  | Free-atom electrostatic energy:         -35.73813987 Ha        -972.48426533 eV
  | Hartree energy correction     :          -0.85406454 Ha         -23.24027865 eV
  | Entropy correction            :          -0.00000000 Ha          -0.00000000 eV
  | ---------------------------
  | Total energy                  :         -76.48874908 Ha       -2081.36476116 eV
  | Total energy, T -> 0          :         -76.48874908 Ha       -2081.36476116 eV  <-- do not rely on this value for anything but (periodic) metals
  | Electronic free energy        :         -76.48874908 Ha       -2081.36476116 eV

  Derived energy quantities:
  | Kinetic energy                :          75.96807631 Ha        2067.19653430 eV
  | Electrostatic energy          :        -143.33482890 Ha       -3900.33914153 eV
  | Energy correction for multipole
  | error in Hartree potential    :          -0.00168984 Ha          -0.04598287 eV
  | Sum of eigenvalues per atom                           :        -385.54124407 eV
  | Total energy (T->0) per atom                          :        -693.78825372 eV  <-- do not rely on this value for anything but (periodic) metals
  | Electronic free energy per atom                       :        -693.78825372 eV
  Evaluating new KS density.
  Integration grid: deviation in total charge (<rho> - N_e) =   0.000000E+00

  Self-consistency convergence accuracy:
  | Change of charge density      :  0.1195E+00
  | Change of unmixed KS density  :  0.1770E+00
  | Change of sum of eigenvalues  : -0.1748E+02 eV
  | Change of total energy        : -0.4107E+00 eV


------------------------------------------------------------
  End self-consistency iteration #     3       :  max(cpu_time)    wall_clock(cpu1)
  | Time for this iteration                     :        0.029 s           0.030 s
  | Charge density update                       :        0.009 s           0.008 s
  | Density mixing                              :        0.001 s           0.001 s
  | Hartree multipole update                    :        0.001 s           0.001 s
  | Hartree multipole summation                 :        0.006 s           0.006 s
  | Integration                                 :        0.011 s           0.012 s
  | Solution of K.-S. eqns.                     :        0.000 s           0.000 s
  | Total energy evaluation                     :        0.000 s           0.001 s

  Partial memory accounting:
  | Current value for overall tracked memory usage:
  |   Minimum:        2.211 MB (on task 0)
  |   Maximum:        2.240 MB (on task 3)
  |   Average:        2.226 MB
  | Peak value for overall tracked memory usage:
  |   Minimum:        2.285 MB (on task 0 after allocating gradient_basis_wave)
  |   Maximum:        2.315 MB (on task 3 after allocating gradient_basis_wave)
  |   Average:        2.301 MB
  | Largest tracked array allocation so far:
  |   Minimum:        0.723 MB (previous_rho_gradient_diff on task 0)
  |   Maximum:        0.734 MB (previous_rho_gradient_diff on task 3)
  |   Average:        0.729 MB
  Note:  These values currently only include a subset of arrays which are explicitly tracked.
  The "true" memory usage will be greater.
------------------------------------------------------------

------------------------------------------------------------
          Begin self-consistency iteration #    4

  Date     :  20241030, Time     :  192638.828
------------------------------------------------------------
  Pulay mixing of updated and previous charge densities.
  Diagnostic output of the density mixing factors determined by the Pulay scheme:
  | Note that these factors are applied to density residuals, i.e., to density differences that are normalized to zero.
  | Iteration         Mixing factor
  | N minus   1       0.335788E+00
  | N minus   2       0.335218E+01
  | N minus   3      -0.151492E+02
  Available memory per node after mixing [GB]:     51.16
  Renormalizing the density to the exact electron count on the 3D integration grid.
  | Formal number of electrons (from input files) :      10.0000000000
  | Integrated number of electrons on 3D grid     :      10.0000000000
  | Charge integration error                      :      -0.0000000000
  | Normalization factor for density and gradient :       1.0000000000

  Evaluating partitioned Hartree potential by multipole expansion.
  | Original multipole sum: apparent total charge =   0.423081E-14
  | Sum of charges compensated after spline to logarithmic grids =   0.117121E-03
  | Analytical far-field extrapolation by fixed multipoles:
  | Hartree multipole sum: apparent total charge =   0.548530E-14
  Summing up the Hartree potential.
  Time summed over all CPUs for potential: real work        0.006 s, elapsed        0.006 s
  | RMS charge density error from multipole expansion :   0.609541E-02

  Integrating Hamiltonian matrix: batch-based integration.
  Time summed over all CPUs for integration: real work        0.045 s, elapsed        0.046 s
          Integrate hamiltonian matrix                 :  max(cpu_time)    wall_clock(cpu1)
          | Total time                                  :        0.011 s           0.011 s

  Updating Kohn-Sham eigenvalues and eigenvectors using ELSI and the ELPA eigensolver.
  Starting ELPA eigensolver
      Allocating      0.004 MB for tmp
      Deallocating tmp
  Finished transformation to standard eigenproblem
  | Time :     0.001 s
  Finished solving standard eigenproblem
  | Time :     0.000 s
      Allocating      0.002 MB for tmp
      Deallocating tmp
  Finished back-transformation of eigenvectors
  | Time :     0.000 s

  Obtaining occupation numbers and electronic chemical potential using ELSI.
  | Note that, for insulating systems, the printed 'chemical potential' value is not uniquely defined.
  | It can be anywhere in the energy gap, as long as it correctly separates occupied and unoccupied states.
  | In systems with a gap, the physically relevant chemical potential is the VBM or HOMO.

  | Chemical potential (Fermi level):    -1.09262835 eV
  Writing Kohn-Sham eigenvalues.

  State    Occupation    Eigenvalue [Ha]    Eigenvalue [eV]
      1       2.00000         -18.814660         -511.97296
      2       2.00000          -0.944401          -25.69845
      3       2.00000          -0.494930          -13.46772
      4       2.00000          -0.356266           -9.69448
      5       2.00000          -0.278332           -7.57379
      6       0.00000          -0.004511           -0.12274
      7       0.00000           0.091595            2.49243
      8       0.00000           0.288453            7.84920
      9       0.00000           0.323812            8.81138
     10       0.00000           0.361887            9.84746
     11       0.00000           0.565476           15.38738

  Highest occupied state (VBM) at     -7.57379070 eV
  | Occupation number:      2.00000000

  Lowest unoccupied state (CBM) at    -0.12274252 eV
  | Occupation number:      0.00000000

  Overall HOMO-LUMO gap:      7.45104817 eV.

  Total energy components:
  | Sum of eigenvalues            :         -41.77717547 Ha       -1136.81478517 eV
  | XC energy correction          :          -9.21402463 Ha        -250.72636711 eV
  | XC potential correction       :          11.85106834 Ha         322.48397733 eV
  | Free-atom electrostatic energy:         -35.73813987 Ha        -972.48426533 eV
  | Hartree energy correction     :          -1.59175477 Ha         -43.31385104 eV
  | Entropy correction            :          -0.00000000 Ha          -0.00000000 eV
  | ---------------------------
  | Total energy                  :         -76.47002641 Ha       -2080.85529132 eV
  | Total energy, T -> 0          :         -76.47002641 Ha       -2080.85529132 eV  <-- do not rely on this value for anything but (periodic) metals
  | Electronic free energy        :         -76.47002641 Ha       -2080.85529132 eV

  Derived energy quantities:
  | Kinetic energy                :          76.21980116 Ha        2074.04631580 eV
  | Electrostatic energy          :        -143.47580293 Ha       -3904.17524001 eV
  | Energy correction for multipole
  | error in Hartree potential    :          -0.00269630 Ha          -0.07337010 eV
  | Sum of eigenvalues per atom                           :        -378.93826172 eV
  | Total energy (T->0) per atom                          :        -693.61843044 eV  <-- do not rely on this value for anything but (periodic) metals
  | Electronic free energy per atom                       :        -693.61843044 eV
  Evaluating new KS density.
  Integration grid: deviation in total charge (<rho> - N_e) =  -1.776357E-15

  Self-consistency convergence accuracy:
  | Change of charge density      :  0.1614E+00
  | Change of unmixed KS density  :  0.1067E+00
  | Change of sum of eigenvalues  :  0.1981E+02 eV
  | Change of total energy        :  0.5095E+00 eV


------------------------------------------------------------
  End self-consistency iteration #     4       :  max(cpu_time)    wall_clock(cpu1)
  | Time for this iteration                     :        0.030 s           0.030 s
  | Charge density update                       :        0.009 s           0.009 s
  | Density mixing                              :        0.001 s           0.002 s
  | Hartree multipole update                    :        0.001 s           0.001 s
  | Hartree multipole summation                 :        0.006 s           0.006 s
  | Integration                                 :        0.012 s           0.011 s
  | Solution of K.-S. eqns.                     :        0.000 s           0.001 s
  | Total energy evaluation                     :        0.000 s           0.000 s

  Partial memory accounting:
  | Current value for overall tracked memory usage:
  |   Minimum:        2.211 MB (on task 0)
  |   Maximum:        2.241 MB (on task 3)
  |   Average:        2.227 MB
  | Peak value for overall tracked memory usage:
  |   Minimum:        2.286 MB (on task 0 after allocating gradient_basis_wave)
  |   Maximum:        2.315 MB (on task 3 after allocating gradient_basis_wave)
  |   Average:        2.301 MB
  | Largest tracked array allocation so far:
  |   Minimum:        0.723 MB (previous_rho_gradient_diff on task 0)
  |   Maximum:        0.734 MB (previous_rho_gradient_diff on task 3)
  |   Average:        0.729 MB
  Note:  These values currently only include a subset of arrays which are explicitly tracked.
  The "true" memory usage will be greater.
------------------------------------------------------------

------------------------------------------------------------
          Begin self-consistency iteration #    5

  Date     :  20241030, Time     :  192638.858
------------------------------------------------------------
  Pulay mixing of updated and previous charge densities.
  Diagnostic output of the density mixing factors determined by the Pulay scheme:
  | Note that these factors are applied to density residuals, i.e., to density differences that are normalized to zero.
  | Iteration         Mixing factor
  | N minus   1      -0.472662E+00
  | N minus   2       0.776260E-01
  | N minus   3       0.256838E+01
  | N minus   4      -0.130035E+02
  Available memory per node after mixing [GB]:     51.16
  Renormalizing the density to the exact electron count on the 3D integration grid.
  | Formal number of electrons (from input files) :      10.0000000000
  | Integrated number of electrons on 3D grid     :      10.0000000000
  | Charge integration error                      :       0.0000000000
  | Normalization factor for density and gradient :       1.0000000000

  Evaluating partitioned Hartree potential by multipole expansion.
  | Original multipole sum: apparent total charge =   0.165543E-13
  | Sum of charges compensated after spline to logarithmic grids =   0.121160E-03
  | Analytical far-field extrapolation by fixed multipoles:
  | Hartree multipole sum: apparent total charge =   0.156688E-13
  Summing up the Hartree potential.
  Time summed over all CPUs for potential: real work        0.006 s, elapsed        0.006 s
  | RMS charge density error from multipole expansion :   0.611699E-02

  Integrating Hamiltonian matrix: batch-based integration.
  Time summed over all CPUs for integration: real work        0.044 s, elapsed        0.045 s
          Integrate hamiltonian matrix                 :  max(cpu_time)    wall_clock(cpu1)
          | Total time                                  :        0.011 s           0.011 s

  Updating Kohn-Sham eigenvalues and eigenvectors using ELSI and the ELPA eigensolver.
  Starting ELPA eigensolver
      Allocating      0.004 MB for tmp
      Deallocating tmp
  Finished transformation to standard eigenproblem
  | Time :     0.000 s
  Finished solving standard eigenproblem
  | Time :     0.001 s
      Allocating      0.002 MB for tmp
      Deallocating tmp
  Finished back-transformation of eigenvectors
  | Time :     0.000 s

  Obtaining occupation numbers and electronic chemical potential using ELSI.
  | Note that, for insulating systems, the printed 'chemical potential' value is not uniquely defined.
  | It can be anywhere in the energy gap, as long as it correctly separates occupied and unoccupied states.
  | In systems with a gap, the physically relevant chemical potential is the VBM or HOMO.

  | Chemical potential (Fermi level):    -1.06834544 eV
  Writing Kohn-Sham eigenvalues.

  State    Occupation    Eigenvalue [Ha]    Eigenvalue [eV]
      1       2.00000         -18.812066         -511.90237
      2       2.00000          -0.942636          -25.65042
      3       2.00000          -0.493423          -13.42673
      4       2.00000          -0.354661           -9.65082
      5       2.00000          -0.276656           -7.52820
      6       0.00000          -0.003898           -0.10606
      7       0.00000           0.092372            2.51358
      8       0.00000           0.289305            7.87239
      9       0.00000           0.324739            8.83660
     10       0.00000           0.362547            9.86540
     11       0.00000           0.566313           15.41017

  Highest occupied state (VBM) at     -7.52820046 eV
  | Occupation number:      2.00000000

  Lowest unoccupied state (CBM) at    -0.10606321 eV
  | Occupation number:      0.00000000

  Overall HOMO-LUMO gap:      7.42213725 eV.

  Total energy components:
  | Sum of eigenvalues            :         -41.75888583 Ha       -1136.31709850 eV
  | XC energy correction          :          -9.21640026 Ha        -250.79101129 eV
  | XC potential correction       :          11.85419524 Ha         322.56906470 eV
  | Free-atom electrostatic energy:         -35.73813987 Ha        -972.48426533 eV
  | Hartree energy correction     :          -1.61064585 Ha         -43.82790359 eV
  | Entropy correction            :          -0.00000000 Ha          -0.00000000 eV
  | ---------------------------
  | Total energy                  :         -76.46987657 Ha       -2080.85121401 eV
  | Total energy, T -> 0          :         -76.46987657 Ha       -2080.85121401 eV  <-- do not rely on this value for anything but (periodic) metals
  | Electronic free energy        :         -76.46987657 Ha       -2080.85121401 eV

  Derived energy quantities:
  | Kinetic energy                :          76.22665798 Ha        2074.23289942 eV
  | Electrostatic energy          :        -143.48013428 Ha       -3904.29310214 eV
  | Energy correction for multipole
  | error in Hartree potential    :          -0.00274813 Ha          -0.07478035 eV
  | Sum of eigenvalues per atom                           :        -378.77236617 eV
  | Total energy (T->0) per atom                          :        -693.61707134 eV  <-- do not rely on this value for anything but (periodic) metals
  | Electronic free energy per atom                       :        -693.61707134 eV
  Evaluating new KS density.
  Integration grid: deviation in total charge (<rho> - N_e) =  -1.776357E-15

  Self-consistency convergence accuracy:
  | Change of charge density      :  0.3235E-01
  | Change of unmixed KS density  :  0.9274E-01
  | Change of sum of eigenvalues  :  0.4977E+00 eV
  | Change of total energy        :  0.4077E-02 eV


------------------------------------------------------------
  End self-consistency iteration #     5       :  max(cpu_time)    wall_clock(cpu1)
  | Time for this iteration                     :        0.030 s           0.030 s
  | Charge density update                       :        0.009 s           0.009 s
  | Density mixing                              :        0.001 s           0.002 s
  | Hartree multipole update                    :        0.001 s           0.001 s
  | Hartree multipole summation                 :        0.006 s           0.006 s
  | Integration                                 :        0.011 s           0.011 s
  | Solution of K.-S. eqns.                     :        0.000 s           0.001 s
  | Total energy evaluation                     :        0.000 s           0.000 s

  Partial memory accounting:
  | Current value for overall tracked memory usage:
  |   Minimum:        2.211 MB (on task 0)
  |   Maximum:        2.241 MB (on task 3)
  |   Average:        2.227 MB
  | Peak value for overall tracked memory usage:
  |   Minimum:        2.286 MB (on task 0 after allocating gradient_basis_wave)
  |   Maximum:        2.315 MB (on task 3 after allocating gradient_basis_wave)
  |   Average:        2.302 MB
  | Largest tracked array allocation so far:
  |   Minimum:        0.723 MB (previous_rho_gradient_diff on task 0)
  |   Maximum:        0.734 MB (previous_rho_gradient_diff on task 3)
  |   Average:        0.729 MB
  Note:  These values currently only include a subset of arrays which are explicitly tracked.
  The "true" memory usage will be greater.
------------------------------------------------------------

------------------------------------------------------------
          Begin self-consistency iteration #    6

  Date     :  20241030, Time     :  192638.888
------------------------------------------------------------
  Pulay mixing of updated and previous charge densities.
  Diagnostic output of the density mixing factors determined by the Pulay scheme:
  | Note that these factors are applied to density residuals, i.e., to density differences that are normalized to zero.
  | Iteration         Mixing factor
  | N minus   1       0.669893E+01
  | N minus   2      -0.824716E+00
  | N minus   3       0.394591E+00
  | N minus   4       0.177847E+01
  | N minus   5      -0.652469E+01
  Available memory per node after mixing [GB]:     51.16
  Renormalizing the density to the exact electron count on the 3D integration grid.
  | Formal number of electrons (from input files) :      10.0000000000
  | Integrated number of electrons on 3D grid     :      10.0000000000
  | Charge integration error                      :       0.0000000000
  | Normalization factor for density and gradient :       1.0000000000

  Evaluating partitioned Hartree potential by multipole expansion.
  | Original multipole sum: apparent total charge =  -0.614943E-15
  | Sum of charges compensated after spline to logarithmic grids =   0.144948E-03
  | Analytical far-field extrapolation by fixed multipoles:
  | Hartree multipole sum: apparent total charge =  -0.983910E-15
  Summing up the Hartree potential.
  Time summed over all CPUs for potential: real work        0.006 s, elapsed        0.006 s
  | RMS charge density error from multipole expansion :   0.634096E-02

  Integrating Hamiltonian matrix: batch-based integration.
  Time summed over all CPUs for integration: real work        0.045 s, elapsed        0.045 s
          Integrate hamiltonian matrix                 :  max(cpu_time)    wall_clock(cpu1)
          | Total time                                  :        0.011 s           0.012 s

  Updating Kohn-Sham eigenvalues and eigenvectors using ELSI and the ELPA eigensolver.
  Starting ELPA eigensolver
      Allocating      0.004 MB for tmp
      Deallocating tmp
  Finished transformation to standard eigenproblem
  | Time :     0.000 s
  Finished solving standard eigenproblem
  | Time :     0.000 s
      Allocating      0.002 MB for tmp
      Deallocating tmp
  Finished back-transformation of eigenvectors
  | Time :     0.000 s

  Obtaining occupation numbers and electronic chemical potential using ELSI.
  | Note that, for insulating systems, the printed 'chemical potential' value is not uniquely defined.
  | It can be anywhere in the energy gap, as long as it correctly separates occupied and unoccupied states.
  | In systems with a gap, the physically relevant chemical potential is the VBM or HOMO.

  | Chemical potential (Fermi level):    -0.91844090 eV
  Writing Kohn-Sham eigenvalues.

  State    Occupation    Eigenvalue [Ha]    Eigenvalue [eV]
      1       2.00000         -18.798276         -511.52712
      2       2.00000          -0.932158          -25.36531
      3       2.00000          -0.484422          -13.18178
      4       2.00000          -0.344997           -9.38784
      5       2.00000          -0.266643           -7.25574
      6       0.00000          -0.000063           -0.00172
      7       0.00000           0.097198            2.64489
      8       0.00000           0.294522            8.01435
      9       0.00000           0.330309            8.98817
     10       0.00000           0.366768            9.98027
     11       0.00000           0.571555           15.55281

  Highest occupied state (VBM) at     -7.25573676 eV
  | Occupation number:      2.00000000

  Lowest unoccupied state (CBM) at    -0.00172446 eV
  | Occupation number:      0.00000000

  Overall HOMO-LUMO gap:      7.25401231 eV.

  Total energy components:
  | Sum of eigenvalues            :         -41.65299145 Ha       -1133.43556586 eV
  | XC energy correction          :          -9.23041636 Ha        -251.17240871 eV
  | XC potential correction       :          11.87263689 Ha         323.07088733 eV
  | Free-atom electrostatic energy:         -35.73813987 Ha        -972.48426533 eV
  | Hartree energy correction     :          -1.72038743 Ha         -46.81412392 eV
  | Entropy correction            :          -0.00000000 Ha          -0.00000000 eV
  | ---------------------------
  | Total energy                  :         -76.46929823 Ha       -2080.83547649 eV
  | Total energy, T -> 0          :         -76.46929823 Ha       -2080.83547649 eV  <-- do not rely on this value for anything but (periodic) metals
  | Electronic free energy        :         -76.46929823 Ha       -2080.83547649 eV

  Derived energy quantities:
  | Kinetic energy                :          76.25449226 Ha        2074.99030883 eV
  | Electrostatic energy          :        -143.49337413 Ha       -3904.65337661 eV
  | Energy correction for multipole
  | error in Hartree potential    :          -0.00311892 Ha          -0.08487009 eV
[...]
      9       0.00000           0.334241            9.09515
     10       0.00000           0.369692           10.05984
     11       0.00000           0.574947           15.64509

  Highest occupied state (VBM) at     -7.06933168 eV
  | Occupation number:      2.00000000

  Lowest unoccupied state (CBM) at     0.06781363 eV
  | Occupation number:      0.00000000

  Overall HOMO-LUMO gap:      7.13714531 eV.

  Total energy components:
  | Sum of eigenvalues            :         -41.58026668 Ha       -1131.45662435 eV
  | XC energy correction          :          -9.23994075 Ha        -251.43158044 eV
  | XC potential correction       :          11.88519003 Ha         323.41247589 eV
  | Free-atom electrostatic energy:         -35.73813987 Ha        -972.48426533 eV
  | Hartree energy correction     :          -1.79602255 Ha         -48.87226029 eV
  | Entropy correction            :          -0.00000000 Ha          -0.00000000 eV
  | ---------------------------
  | Total energy                  :         -76.46917982 Ha       -2080.83225452 eV
  | Total energy, T -> 0          :         -76.46917982 Ha       -2080.83225452 eV  <-- do not rely on this value for anything but (periodic) metals
  | Electronic free energy        :         -76.46917982 Ha       -2080.83225452 eV

  Derived energy quantities:
  | Kinetic energy                :          76.27402695 Ha        2075.52187467 eV
  | Electrostatic energy          :        -143.50326602 Ha       -3904.92254875 eV
  | Energy correction for multipole
  | error in Hartree potential    :          -0.00338833 Ha          -0.09220106 eV
  | Sum of eigenvalues per atom                           :        -377.15220812 eV
  | Total energy (T->0) per atom                          :        -693.61075151 eV  <-- do not rely on this value for anything but (periodic) metals
  | Electronic free energy per atom                       :        -693.61075151 eV
  Evaluating new KS density.
  Integration grid: deviation in total charge (<rho> - N_e) =  -5.329071E-15

  Self-consistency convergence accuracy:
  | Change of charge density      :  0.2628E-04
  | Change of unmixed KS density  :  0.4957E-04
  | Change of sum of eigenvalues  :  0.3996E-02 eV
  | Change of total energy        :  0.3822E-06 eV


------------------------------------------------------------
  End self-consistency iteration #    11       :  max(cpu_time)    wall_clock(cpu1)
  | Time for this iteration                     :        0.032 s           0.033 s
  | Charge density update                       :        0.009 s           0.008 s
  | Density mixing                              :        0.003 s           0.003 s
  | Hartree multipole update                    :        0.001 s           0.001 s
  | Hartree multipole summation                 :        0.007 s           0.007 s
  | Integration                                 :        0.012 s           0.011 s
  | Solution of K.-S. eqns.                     :        0.001 s           0.001 s
  | Total energy evaluation                     :        0.000 s           0.001 s

  Partial memory accounting:
  | Current value for overall tracked memory usage:
  |   Minimum:        2.212 MB (on task 0)
  |   Maximum:        2.242 MB (on task 3)
  |   Average:        2.228 MB
  | Peak value for overall tracked memory usage:
  |   Minimum:        2.287 MB (on task 0 after allocating gradient_basis_wave)
  |   Maximum:        2.317 MB (on task 3 after allocating gradient_basis_wave)
  |   Average:        2.303 MB
  | Largest tracked array allocation so far:
  |   Minimum:        0.723 MB (previous_rho_gradient_diff on task 0)
  |   Maximum:        0.734 MB (previous_rho_gradient_diff on task 3)
  |   Average:        0.729 MB
  Note:  These values currently only include a subset of arrays which are explicitly tracked.
  The "true" memory usage will be greater.
------------------------------------------------------------

------------------------------------------------------------
          Begin self-consistency iteration #   12

  Date     :  20241030, Time     :  192639.075
------------------------------------------------------------
  Pulay mixing of updated and previous charge densities.
  Diagnostic output of the density mixing factors determined by the Pulay scheme:
  | Note that these factors are applied to density residuals, i.e., to density differences that are normalized to zero.
  | Iteration         Mixing factor
  | N minus   1       0.358623E+01
  | N minus   2       0.573705E-01
  | N minus   3      -0.268775E-01
  | N minus   4      -0.232231E-01
  | N minus   5      -0.942503E-02
  | N minus   6       0.427164E-02
  | N minus   7      -0.922216E-02
  | N minus   8      -0.206899E-04
  Available memory per node after mixing [GB]:     51.15
  Renormalizing the density to the exact electron count on the 3D integration grid.
  | Formal number of electrons (from input files) :      10.0000000000
  | Integrated number of electrons on 3D grid     :      10.0000000000
  | Charge integration error                      :      -0.0000000000
  | Normalization factor for density and gradient :       1.0000000000

  Evaluating partitioned Hartree potential by multipole expansion.
  | Original multipole sum: apparent total charge =   0.332069E-14
  | Sum of charges compensated after spline to logarithmic grids =   0.163078E-03
  | Analytical far-field extrapolation by fixed multipoles:
  | Hartree multipole sum: apparent total charge =   0.336989E-14
  Summing up the Hartree potential.
  Time summed over all CPUs for potential: real work        0.006 s, elapsed        0.006 s
  | RMS charge density error from multipole expansion :   0.647132E-02

  Integrating Hamiltonian matrix: batch-based integration.
  Time summed over all CPUs for integration: real work        0.045 s, elapsed        0.045 s
          Integrate hamiltonian matrix                 :  max(cpu_time)    wall_clock(cpu1)
          | Total time                                  :        0.011 s           0.011 s

  Updating Kohn-Sham eigenvalues and eigenvectors using ELSI and the ELPA eigensolver.
  Starting ELPA eigensolver
      Allocating      0.004 MB for tmp
      Deallocating tmp
  Finished transformation to standard eigenproblem
  | Time :     0.000 s
  Finished solving standard eigenproblem
  | Time :     0.001 s
      Allocating      0.002 MB for tmp
      Deallocating tmp
  Finished back-transformation of eigenvectors
  | Time :     0.000 s

  Obtaining occupation numbers and electronic chemical potential using ELSI.
  | Note that, for insulating systems, the printed 'chemical potential' value is not uniquely defined.
  | It can be anywhere in the energy gap, as long as it correctly separates occupied and unoccupied states.
  | In systems with a gap, the physically relevant chemical potential is the VBM or HOMO.

  | Chemical potential (Fermi level):    -0.82077051 eV
  Writing Kohn-Sham eigenvalues.

  State    Occupation    Eigenvalue [Ha]    Eigenvalue [eV]
      1       2.00000         -18.788544         -511.26229
      2       2.00000          -0.925130          -25.17408
      3       2.00000          -0.478394          -13.01777
      4       2.00000          -0.338273           -9.20487
      5       2.00000          -0.259793           -7.06934
      6       0.00000           0.002492            0.06781
      7       0.00000           0.100447            2.73329
      8       0.00000           0.298241            8.11554
      9       0.00000           0.334241            9.09515
     10       0.00000           0.369692           10.05984
     11       0.00000           0.574946           15.64508

  Highest occupied state (VBM) at     -7.06933705 eV
  | Occupation number:      2.00000000

  Lowest unoccupied state (CBM) at     0.06780875 eV
  | Occupation number:      0.00000000

  Overall HOMO-LUMO gap:      7.13714580 eV.

  Total energy components:
  | Sum of eigenvalues            :         -41.58026831 Ha       -1131.45666866 eV
  | XC energy correction          :          -9.23994039 Ha        -251.43157062 eV
  | XC potential correction       :          11.88518957 Ha         323.41246316 eV
  | Free-atom electrostatic energy:         -35.73813987 Ha        -972.48426533 eV
  | Hartree energy correction     :          -1.79602082 Ha         -48.87221305 eV
  | Entropy correction            :          -0.00000000 Ha          -0.00000000 eV
  | ---------------------------
  | Total energy                  :         -76.46917982 Ha       -2080.83225451 eV
  | Total energy, T -> 0          :         -76.46917982 Ha       -2080.83225451 eV  <-- do not rely on this value for anything but (periodic) metals
  | Electronic free energy        :         -76.46917982 Ha       -2080.83225451 eV

  Derived energy quantities:
  | Kinetic energy                :          76.27402776 Ha        2075.52189662 eV
  | Electrostatic energy          :        -143.50326719 Ha       -3904.92258051 eV
  | Energy correction for multipole
  | error in Hartree potential    :          -0.00338830 Ha          -0.09220043 eV
  | Sum of eigenvalues per atom                           :        -377.15222289 eV
  | Total energy (T->0) per atom                          :        -693.61075150 eV  <-- do not rely on this value for anything but (periodic) metals
  | Electronic free energy per atom                       :        -693.61075150 eV

  Self-consistency convergence accuracy:
  | Change of charge density      :  0.7136E-06
  | Change of unmixed KS density  :  0.1969E-04
  | Change of sum of eigenvalues  : -0.4431E-04 eV
  | Change of total energy        :  0.1599E-07 eV

  Writing Kohn-Sham eigenvalues.

  State    Occupation    Eigenvalue [Ha]    Eigenvalue [eV]
      1       2.00000         -18.788544         -511.26229
      2       2.00000          -0.925130          -25.17408
      3       2.00000          -0.478394          -13.01777
      4       2.00000          -0.338273           -9.20487
      5       2.00000          -0.259793           -7.06934
      6       0.00000           0.002492            0.06781
      7       0.00000           0.100447            2.73329
      8       0.00000           0.298241            8.11554
      9       0.00000           0.334241            9.09515
     10       0.00000           0.369692           10.05984
     11       0.00000           0.574946           15.64508

  Highest occupied state (VBM) at     -7.06933705 eV
  | Occupation number:      2.00000000

  Lowest unoccupied state (CBM) at     0.06780875 eV
  | Occupation number:      0.00000000

  Overall HOMO-LUMO gap:      7.13714580 eV.

  | Chemical Potential                          :    -0.82077051 eV
  | Note that, for insulating systems, the printed 'chemical potential' value is not uniquely defined.
  | It can be anywhere in the energy gap, as long as it correctly separates occupied and unoccupied states.
  | In systems with a gap, the physically relevant chemical potential is the VBM or HOMO.

  Self-consistency cycle converged.


------------------------------------------------------------
  End self-consistency iteration #    12       :  max(cpu_time)    wall_clock(cpu1)
  | Time for this iteration                     :        0.023 s           0.023 s
  | Charge density update                       :        0.000 s           0.000 s
  | Density mixing                              :        0.002 s           0.002 s
  | Hartree multipole update                    :        0.001 s           0.001 s
  | Hartree multipole summation                 :        0.006 s           0.007 s
  | Integration                                 :        0.011 s           0.011 s
  | Solution of K.-S. eqns.                     :        0.001 s           0.001 s
  | Total energy evaluation                     :        0.000 s           0.001 s

  Partial memory accounting:
  | Current value for overall tracked memory usage:
  |   Minimum:        2.212 MB (on task 0)
  |   Maximum:        2.242 MB (on task 3)
  |   Average:        2.228 MB
  | Peak value for overall tracked memory usage:
  |   Minimum:        2.287 MB (on task 0 after allocating gradient_basis_wave)
  |   Maximum:        2.317 MB (on task 3 after allocating gradient_basis_wave)
  |   Average:        2.303 MB
  | Largest tracked array allocation so far:
  |   Minimum:        0.723 MB (previous_rho_gradient_diff on task 0)
  |   Maximum:        0.734 MB (previous_rho_gradient_diff on task 3)
  |   Average:        0.729 MB
  Note:  These values currently only include a subset of arrays which are explicitly tracked.
  The "true" memory usage will be greater.
------------------------------------------------------------

  Energy and forces in a compact form:
  | Total energy uncorrected      :         -0.208083225450528E+04 eV
  | Total energy corrected        :         -0.208083225450528E+04 eV  <-- do not rely on this value for anything but (periodic) metals
  | Electronic free energy        :         -0.208083225450528E+04 eV

  ------------------------------------ 
  Start decomposition of the XC Energy 
  ------------------------------------ 
  X and C from original XC functional choice 
  Hartree-Fock Energy :          0.000000000 Ha              0.000000000 eV
  X Energy            :         -8.914977641 Ha           -242.588884409 eV
  C Energy            :         -0.324962745 Ha             -8.842686210 eV
  XC Energy w/o HF    :         -9.239940387 Ha           -251.431570619 eV
  Total XC Energy     :         -9.239940387 Ha           -251.431570619 eV
  ------------------------------------ 
  LDA X and C from self-consistent density 
  X Energy LDA        :         -8.098839311 Ha           -220.380630483 eV
  C Energy LDA        :         -0.659361465 Ha            -17.942138359 eV
  ------------------------------------ 
  End decomposition of the XC Energy 
  ------------------------------------ 

------------------------------------------------------------

------------------------------------------------------------------------------
  Final output of selected total energy values:

  The following output summarizes some interesting total energy values
  at the end of a run (AFTER all relaxation, molecular dynamics, etc.).

  | Total energy of the DFT / Hartree-Fock s.c.f. calculation      :          -2080.832254505 eV
  | Final zero-broadening corrected energy (caution - metals only) :          -2080.832254505 eV
  | For reference only, the value of 1 Hartree used in FHI-aims is :             27.211384500 eV

  Before relying on these values, please be sure to understand exactly which
  total energy value is referred to by a given number. Different objects may
  all carry the same name 'total energy'. Definitions:

  Total energy of the DFT / Hartree-Fock s.c.f. calculation:
  | Note that this energy does not include ANY quantities calculated after the
  | s.c.f. cycle, in particular not ANY RPA, MP2, etc. many-body perturbation terms.

  Final zero-broadening corrected energy:
  | For metallic systems only, a broadening of the occupation numbers at the Fermi
  | level can be extrapolated back to zero broadening by an electron-gas inspired
  | formula. For all systems that are not real metals, this value can be
  | meaningless and should be avoided.

------------------------------------------------------------------------------
  Methods described in the following list of references were used in this FHI-aims run.
  If you publish the results, please make sure to cite these reference if they apply.
  FHI-aims is an academic code, and for our developers (often, Ph.D. students
  and postdocs), scientific credit in the community is essential.
  Thank you for helping us!

  For any use of FHI-aims, please cite:

    Volker Blum, Ralf Gehrke, Felix Hanke, Paula Havu, Ville Havu,
    Xinguo Ren, Karsten Reuter, and Matthias Scheffler
    'Ab initio molecular simulations with numeric atom-centered orbitals'
    Computer Physics Communications 180, 2175-2196 (2009)
    http://doi.org/10.1016/j.cpc.2009.06.022


  The ELSI infrastructure was used in your run to solve the Kohn-Sham electronic structure.
  Please check out https://wordpress.elsi-interchange.org to learn more.
  If scalability is important for your project, please acknowledge ELSI by citing:

    V. W-z. Yu, F. Corsetti, A. Garcia, W. P. Huhn, M. Jacquelin, W. Jia,
    B. Lange, L. Lin, J. Lu, W. Mi, A. Seifitokaldani, A. Vazquez-Mayagoitia,
    C. Yang, H. Yang, and V. Blum
    'ELSI: A unified software interface for Kohn-Sham electronic structure solvers'
    Computer Physics Communications 222, 267-285 (2018).
    http://doi.org/10.1016/j.cpc.2017.09.007


  For the real-space grid partitioning and parallelization used in this calculation, please cite:

    Ville Havu, Volker Blum, Paula Havu, and Matthias Scheffler,
    'Efficient O(N) integration for all-electron electronic structure calculation'
    'using numerically tabulated basis functions'
    Journal of Computational Physics 228, 8367-8379 (2009).
    http://doi.org/10.1016/j.jcp.2009.08.008

  Of course, there are many other important community references, e.g., those cited in the
  above references. Our list is limited to references that describe implementations in the
  FHI-aims code. The reason is purely practical (length of this list) - please credit others as well.

------------------------------------------------------------
          Leaving FHI-aims.
          Date     :  20241030, Time     :  192639.102

          Computational steps:
          | Number of self-consistency cycles          :           12
          | Number of SCF (re)initializations          :            1

          Detailed time accounting                     :  max(cpu_time)    wall_clock(cpu1)
          | Total time                                  :        0.511 s           0.541 s
          | Preparation time                            :        0.086 s           0.096 s
          | Boundary condition initalization            :        0.002 s           0.001 s
          | Grid partitioning                           :        0.007 s           0.009 s
          | Preloading free-atom quantities on grid     :        0.006 s           0.006 s
          | Free-atom superposition energy              :        0.004 s           0.004 s
          | Total time for integrations                 :        0.152 s           0.150 s
          | Total time for solution of K.-S. equations  :        0.006 s           0.011 s
          | Total time for density update               :        0.106 s           0.106 s
          | Total time for mixing                       :        0.021 s           0.024 s
          | Total time for Hartree multipole update     :        0.013 s           0.013 s
          | Total time for Hartree multipole sum        :        0.076 s           0.077 s
          | Total time for total energy evaluation      :        0.001 s           0.003 s
          | Total time for scaled ZORA corrections      :        0.000 s           0.000 s

          Partial memory accounting:
          | Residual value for overall tracked memory usage across tasks:     0.000000 MB (should be 0.000000 MB)
          | Peak values for overall tracked memory usage:
          |   Minimum:        2.287 MB (on task 0 after allocating gradient_basis_wave)
          |   Maximum:        2.317 MB (on task 3 after allocating gradient_basis_wave)
          |   Average:        2.303 MB
          | Largest tracked array allocation:
          |   Minimum:        0.723 MB (previous_rho_gradient_diff on task 0)
          |   Maximum:        0.734 MB (previous_rho_gradient_diff on task 3)
          |   Average:        0.729 MB
          Note:  These values currently only include a subset of arrays which are explicitly tracked.
          The "true" memory usage will be greater.

          Have a nice day.
------------------------------------------------------------
